V -t * -v 1.0a5 -a 0
A -t * -n 1 -p 0 -o 0x7fffffff -c 30 -a 1
A -t * -h 1 -m 1073741823 -s 0
c -t * -i 4 -n yellow
c -t * -i 0 -n blue
c -t * -i 5 -n violet
c -t * -i 1 -n red
c -t * -i 2 -n cyan
c -t * -i 3 -n green
n -t * -a 4 -s 4 -S UP -v circle -c black -i black
n -t * -a 0 -s 0 -S UP -v circle -c black -i black
n -t * -a 5 -s 5 -S UP -v circle -c black -i black
n -t * -a 1 -s 1 -S UP -v circle -c black -i black
n -t * -a 2 -s 2 -S UP -v circle -c black -i black
n -t * -a 3 -s 3 -S UP -v circle -c black -i black
X -t * -n 6 -r 0.5Mb -D 40ms -o left
L -t * -s 6 -d 0 -o up
L -t * -s 6 -d 1 -o down
L -t * -s 6 -d 2 -o up
L -t * -s 6 -d 3 -o down
L -t * -s 6 -d 4 -o up
L -t * -s 6 -d 5 -o down
h -t 0.5 -s 1 -d 6 -p tcp -e 40 -c 0 -i 0 -a 0 -x {1.0 2.0 0 ------- null}
h -t 0.5 -s 2 -d 6 -p tcp -e 40 -c 1 -i 1 -a 1 -x {2.1 3.0 0 ------- null}
h -t 0.5 -s 3 -d 6 -p tcp -e 40 -c 2 -i 2 -a 2 -x {3.1 4.0 0 ------- null}
h -t 0.5 -s 4 -d 6 -p tcp -e 40 -c 3 -i 3 -a 3 -x {4.1 0.0 0 ------- null}
+ -t 0.54 -s 1 -d 6 -p tcp -e 40 -c 0 -i 0 -a 0 -x {1.0 2.0 0 ------- null}
- -t 0.54 -s 1 -d 6 -p tcp -e 40 -c 0 -i 0 -a 0 -x {1.0 2.0 0 ------- null}
h -t 0.54 -s 1 -d 6 -p tcp -e 40 -c 0 -i 0 -a 0 -x {1.0 2.0 -1 ------- null}
+ -t 0.54 -s 2 -d 6 -p tcp -e 40 -c 1 -i 1 -a 1 -x {2.1 3.0 0 ------- null}
- -t 0.54 -s 2 -d 6 -p tcp -e 40 -c 1 -i 1 -a 1 -x {2.1 3.0 0 ------- null}
h -t 0.54 -s 2 -d 6 -p tcp -e 40 -c 1 -i 1 -a 1 -x {2.1 3.0 -1 ------- null}
+ -t 0.54 -s 3 -d 6 -p tcp -e 40 -c 2 -i 2 -a 2 -x {3.1 4.0 0 ------- null}
- -t 0.54 -s 3 -d 6 -p tcp -e 40 -c 2 -i 2 -a 2 -x {3.1 4.0 0 ------- null}
h -t 0.54 -s 3 -d 6 -p tcp -e 40 -c 2 -i 2 -a 2 -x {3.1 4.0 -1 ------- null}
+ -t 0.54 -s 4 -d 6 -p tcp -e 40 -c 3 -i 3 -a 3 -x {4.1 0.0 0 ------- null}
- -t 0.54 -s 4 -d 6 -p tcp -e 40 -c 3 -i 3 -a 3 -x {4.1 0.0 0 ------- null}
h -t 0.54 -s 4 -d 6 -p tcp -e 40 -c 3 -i 3 -a 3 -x {4.1 0.0 -1 ------- null}
r -t 0.581808 -s 6 -d 3 -p tcp -e 40 -c 1 -i 1 -a 1 -x {2.1 3.0 0 ------- null}
h -t 0.581808 -s 3 -d 6 -p ack -e 40 -c 1 -i 4 -a 1 -x {3.0 2.1 0 ------- null}
r -t 0.584312 -s 6 -d 0 -p tcp -e 40 -c 3 -i 3 -a 3 -x {4.1 0.0 0 ------- null}
h -t 0.584312 -s 0 -d 6 -p ack -e 40 -c 3 -i 5 -a 3 -x {0.0 4.1 0 ------- null}
r -t 0.58636 -s 6 -d 2 -p tcp -e 40 -c 0 -i 0 -a 0 -x {1.0 2.0 0 ------- null}
h -t 0.58636 -s 2 -d 6 -p ack -e 40 -c 0 -i 6 -a 0 -x {2.0 1.0 0 ------- null}
r -t 0.588976 -s 6 -d 4 -p tcp -e 40 -c 2 -i 2 -a 2 -x {3.1 4.0 0 ------- null}
h -t 0.588976 -s 4 -d 6 -p ack -e 40 -c 2 -i 7 -a 2 -x {4.0 3.1 0 ------- null}
+ -t 0.621808 -s 3 -d 6 -p ack -e 40 -c 1 -i 4 -a 1 -x {3.0 2.1 0 ------- null}
- -t 0.621808 -s 3 -d 6 -p ack -e 40 -c 1 -i 4 -a 1 -x {3.0 2.1 0 ------- null}
h -t 0.621808 -s 3 -d 6 -p ack -e 40 -c 1 -i 4 -a 1 -x {3.0 2.1 -1 ------- null}
+ -t 0.624312 -s 0 -d 6 -p ack -e 40 -c 3 -i 5 -a 3 -x {0.0 4.1 0 ------- null}
- -t 0.624312 -s 0 -d 6 -p ack -e 40 -c 3 -i 5 -a 3 -x {0.0 4.1 0 ------- null}
h -t 0.624312 -s 0 -d 6 -p ack -e 40 -c 3 -i 5 -a 3 -x {0.0 4.1 -1 ------- null}
+ -t 0.62636 -s 2 -d 6 -p ack -e 40 -c 0 -i 6 -a 0 -x {2.0 1.0 0 ------- null}
- -t 0.62636 -s 2 -d 6 -p ack -e 40 -c 0 -i 6 -a 0 -x {2.0 1.0 0 ------- null}
h -t 0.62636 -s 2 -d 6 -p ack -e 40 -c 0 -i 6 -a 0 -x {2.0 1.0 -1 ------- null}
+ -t 0.628976 -s 4 -d 6 -p ack -e 40 -c 2 -i 7 -a 2 -x {4.0 3.1 0 ------- null}
- -t 0.628976 -s 4 -d 6 -p ack -e 40 -c 2 -i 7 -a 2 -x {4.0 3.1 0 ------- null}
h -t 0.628976 -s 4 -d 6 -p ack -e 40 -c 2 -i 7 -a 2 -x {4.0 3.1 -1 ------- null}
r -t 0.662836 -s 6 -d 2 -p ack -e 40 -c 1 -i 4 -a 1 -x {3.0 2.1 0 ------- null}
h -t 0.662836 -s 2 -d 6 -p tcp -e 1040 -c 1 -i 8 -a 1 -x {2.1 3.0 1 ------- null}
h -t 0.662836 -s 2 -d 6 -p tcp -e 1040 -c 1 -i 9 -a 1 -x {2.1 3.0 2 ------- null}
r -t 0.66534 -s 6 -d 4 -p ack -e 40 -c 3 -i 5 -a 3 -x {0.0 4.1 0 ------- null}
h -t 0.66534 -s 4 -d 6 -p tcp -e 1040 -c 3 -i 10 -a 3 -x {4.1 0.0 1 ------- null}
h -t 0.66534 -s 4 -d 6 -p tcp -e 1040 -c 3 -i 11 -a 3 -x {4.1 0.0 2 ------- null}
r -t 0.667388 -s 6 -d 1 -p ack -e 40 -c 0 -i 6 -a 0 -x {2.0 1.0 0 ------- null}
h -t 0.667388 -s 1 -d 6 -p tcp -e 1040 -c 0 -i 12 -a 0 -x {1.0 2.0 1 ------- null}
h -t 0.667388 -s 1 -d 6 -p tcp -e 1040 -c 0 -i 13 -a 0 -x {1.0 2.0 2 ------- null}
r -t 0.670004 -s 6 -d 3 -p ack -e 40 -c 2 -i 7 -a 2 -x {4.0 3.1 0 ------- null}
h -t 0.670004 -s 3 -d 6 -p tcp -e 1040 -c 2 -i 14 -a 2 -x {3.1 4.0 1 ------- null}
h -t 0.670004 -s 3 -d 6 -p tcp -e 1040 -c 2 -i 15 -a 2 -x {3.1 4.0 2 ------- null}
+ -t 0.702836 -s 2 -d 6 -p tcp -e 1040 -c 1 -i 8 -a 1 -x {2.1 3.0 1 ------- null}
- -t 0.702836 -s 2 -d 6 -p tcp -e 1040 -c 1 -i 8 -a 1 -x {2.1 3.0 1 ------- null}
h -t 0.702836 -s 2 -d 6 -p tcp -e 1040 -c 1 -i 8 -a 1 -x {2.1 3.0 -1 ------- null}
+ -t 0.702836 -s 2 -d 6 -p tcp -e 1040 -c 1 -i 9 -a 1 -x {2.1 3.0 2 ------- null}
+ -t 0.70534 -s 4 -d 6 -p tcp -e 1040 -c 3 -i 10 -a 3 -x {4.1 0.0 1 ------- null}
- -t 0.70534 -s 4 -d 6 -p tcp -e 1040 -c 3 -i 10 -a 3 -x {4.1 0.0 1 ------- null}
h -t 0.70534 -s 4 -d 6 -p tcp -e 1040 -c 3 -i 10 -a 3 -x {4.1 0.0 -1 ------- null}
+ -t 0.70534 -s 4 -d 6 -p tcp -e 1040 -c 3 -i 11 -a 3 -x {4.1 0.0 2 ------- null}
+ -t 0.707388 -s 1 -d 6 -p tcp -e 1040 -c 0 -i 12 -a 0 -x {1.0 2.0 1 ------- null}
- -t 0.707388 -s 1 -d 6 -p tcp -e 1040 -c 0 -i 12 -a 0 -x {1.0 2.0 1 ------- null}
h -t 0.707388 -s 1 -d 6 -p tcp -e 1040 -c 0 -i 12 -a 0 -x {1.0 2.0 -1 ------- null}
+ -t 0.707388 -s 1 -d 6 -p tcp -e 1040 -c 0 -i 13 -a 0 -x {1.0 2.0 2 ------- null}
+ -t 0.710004 -s 3 -d 6 -p tcp -e 1040 -c 2 -i 14 -a 2 -x {3.1 4.0 1 ------- null}
- -t 0.710004 -s 3 -d 6 -p tcp -e 1040 -c 2 -i 14 -a 2 -x {3.1 4.0 1 ------- null}
h -t 0.710004 -s 3 -d 6 -p tcp -e 1040 -c 2 -i 14 -a 2 -x {3.1 4.0 -1 ------- null}
+ -t 0.710004 -s 3 -d 6 -p tcp -e 1040 -c 2 -i 15 -a 2 -x {3.1 4.0 2 ------- null}
- -t 0.719892 -s 2 -d 6 -p tcp -e 1040 -c 1 -i 9 -a 1 -x {2.1 3.0 2 ------- null}
h -t 0.719892 -s 2 -d 6 -p tcp -e 1040 -c 1 -i 9 -a 1 -x {2.1 3.0 -1 ------- null}
- -t 0.75658 -s 1 -d 6 -p tcp -e 1040 -c 0 -i 13 -a 0 -x {1.0 2.0 2 ------- null}
h -t 0.75658 -s 1 -d 6 -p tcp -e 1040 -c 0 -i 13 -a 0 -x {1.0 2.0 -1 ------- null}
r -t 0.759704 -s 6 -d 3 -p tcp -e 1040 -c 1 -i 8 -a 1 -x {2.1 3.0 1 ------- null}
r -t 0.778048 -s 6 -d 3 -p tcp -e 1040 -c 1 -i 9 -a 1 -x {2.1 3.0 2 ------- null}
h -t 0.778048 -s 3 -d 6 -p ack -e 40 -c 1 -i 16 -a 1 -x {3.0 2.1 2 ------- null}
- -t 0.795316 -s 4 -d 6 -p tcp -e 1040 -c 3 -i 11 -a 3 -x {4.1 0.0 2 ------- null}
h -t 0.795316 -s 4 -d 6 -p tcp -e 1040 -c 3 -i 11 -a 3 -x {4.1 0.0 -1 ------- null}
r -t 0.796392 -s 6 -d 2 -p tcp -e 1040 -c 0 -i 12 -a 0 -x {1.0 2.0 1 ------- null}
r -t 0.814736 -s 6 -d 2 -p tcp -e 1040 -c 0 -i 13 -a 0 -x {1.0 2.0 2 ------- null}
h -t 0.814736 -s 2 -d 6 -p ack -e 40 -c 0 -i 17 -a 0 -x {2.0 1.0 2 ------- null}
+ -t 0.818048 -s 3 -d 6 -p ack -e 40 -c 1 -i 16 -a 1 -x {3.0 2.1 2 ------- null}
- -t 0.829432 -s 3 -d 6 -p tcp -e 1040 -c 2 -i 15 -a 2 -x {3.1 4.0 2 ------- null}
h -t 0.829432 -s 3 -d 6 -p tcp -e 1040 -c 2 -i 15 -a 2 -x {3.1 4.0 -1 ------- null}
r -t 0.835128 -s 6 -d 0 -p tcp -e 1040 -c 3 -i 10 -a 3 -x {4.1 0.0 1 ------- null}
- -t 0.846488 -s 3 -d 6 -p ack -e 40 -c 1 -i 16 -a 1 -x {3.0 2.1 2 ------- null}
h -t 0.846488 -s 3 -d 6 -p ack -e 40 -c 1 -i 16 -a 1 -x {3.0 2.1 -1 ------- null}
r -t 0.852184 -s 6 -d 0 -p tcp -e 1040 -c 3 -i 11 -a 3 -x {4.1 0.0 2 ------- null}
h -t 0.852184 -s 0 -d 6 -p ack -e 40 -c 3 -i 18 -a 3 -x {0.0 4.1 2 ------- null}
+ -t 0.854736 -s 2 -d 6 -p ack -e 40 -c 0 -i 17 -a 0 -x {2.0 1.0 2 ------- null}
- -t 0.854736 -s 2 -d 6 -p ack -e 40 -c 0 -i 17 -a 0 -x {2.0 1.0 2 ------- null}
h -t 0.854736 -s 2 -d 6 -p ack -e 40 -c 0 -i 17 -a 0 -x {2.0 1.0 -1 ------- null}
r -t 0.869244 -s 6 -d 4 -p tcp -e 1040 -c 2 -i 14 -a 2 -x {3.1 4.0 1 ------- null}
r -t 0.8863 -s 6 -d 4 -p tcp -e 1040 -c 2 -i 15 -a 2 -x {3.1 4.0 2 ------- null}
h -t 0.8863 -s 4 -d 6 -p ack -e 40 -c 2 -i 19 -a 2 -x {4.0 3.1 2 ------- null}
r -t 0.887516 -s 6 -d 2 -p ack -e 40 -c 1 -i 16 -a 1 -x {3.0 2.1 2 ------- null}
h -t 0.887516 -s 2 -d 6 -p tcp -e 1040 -c 1 -i 20 -a 1 -x {2.1 3.0 3 ------- null}
h -t 0.887516 -s 2 -d 6 -p tcp -e 1040 -c 1 -i 21 -a 1 -x {2.1 3.0 4 ------- null}
h -t 0.887516 -s 2 -d 6 -p tcp -e 1040 -c 1 -i 22 -a 1 -x {2.1 3.0 5 ------- null}
+ -t 0.892184 -s 0 -d 6 -p ack -e 40 -c 3 -i 18 -a 3 -x {0.0 4.1 2 ------- null}
- -t 0.892184 -s 0 -d 6 -p ack -e 40 -c 3 -i 18 -a 3 -x {0.0 4.1 2 ------- null}
h -t 0.892184 -s 0 -d 6 -p ack -e 40 -c 3 -i 18 -a 3 -x {0.0 4.1 -1 ------- null}
r -t 0.895764 -s 6 -d 1 -p ack -e 40 -c 0 -i 17 -a 0 -x {2.0 1.0 2 ------- null}
h -t 0.895764 -s 1 -d 6 -p tcp -e 1040 -c 0 -i 23 -a 0 -x {1.0 2.0 3 ------- null}
h -t 0.895764 -s 1 -d 6 -p tcp -e 1040 -c 0 -i 24 -a 0 -x {1.0 2.0 4 ------- null}
h -t 0.895764 -s 1 -d 6 -p tcp -e 1040 -c 0 -i 25 -a 0 -x {1.0 2.0 5 ------- null}
+ -t 0.9263 -s 4 -d 6 -p ack -e 40 -c 2 -i 19 -a 2 -x {4.0 3.1 2 ------- null}
- -t 0.9263 -s 4 -d 6 -p ack -e 40 -c 2 -i 19 -a 2 -x {4.0 3.1 2 ------- null}
h -t 0.9263 -s 4 -d 6 -p ack -e 40 -c 2 -i 19 -a 2 -x {4.0 3.1 -1 ------- null}
+ -t 0.927516 -s 2 -d 6 -p tcp -e 1040 -c 1 -i 20 -a 1 -x {2.1 3.0 3 ------- null}
- -t 0.927516 -s 2 -d 6 -p tcp -e 1040 -c 1 -i 20 -a 1 -x {2.1 3.0 3 ------- null}
h -t 0.927516 -s 2 -d 6 -p tcp -e 1040 -c 1 -i 20 -a 1 -x {2.1 3.0 -1 ------- null}
+ -t 0.927516 -s 2 -d 6 -p tcp -e 1040 -c 1 -i 21 -a 1 -x {2.1 3.0 4 ------- null}
+ -t 0.927516 -s 2 -d 6 -p tcp -e 1040 -c 1 -i 22 -a 1 -x {2.1 3.0 5 ------- null}
r -t 0.933212 -s 6 -d 4 -p ack -e 40 -c 3 -i 18 -a 3 -x {0.0 4.1 2 ------- null}
h -t 0.933212 -s 4 -d 6 -p tcp -e 1040 -c 3 -i 26 -a 3 -x {4.1 0.0 3 ------- null}
h -t 0.933212 -s 4 -d 6 -p tcp -e 1040 -c 3 -i 27 -a 3 -x {4.1 0.0 4 ------- null}
h -t 0.933212 -s 4 -d 6 -p tcp -e 1040 -c 3 -i 28 -a 3 -x {4.1 0.0 5 ------- null}
+ -t 0.935764 -s 1 -d 6 -p tcp -e 1040 -c 0 -i 23 -a 0 -x {1.0 2.0 3 ------- null}
- -t 0.935764 -s 1 -d 6 -p tcp -e 1040 -c 0 -i 23 -a 0 -x {1.0 2.0 3 ------- null}
h -t 0.935764 -s 1 -d 6 -p tcp -e 1040 -c 0 -i 23 -a 0 -x {1.0 2.0 -1 ------- null}
+ -t 0.935764 -s 1 -d 6 -p tcp -e 1040 -c 0 -i 24 -a 0 -x {1.0 2.0 4 ------- null}
+ -t 0.935764 -s 1 -d 6 -p tcp -e 1040 -c 0 -i 25 -a 0 -x {1.0 2.0 5 ------- null}
- -t 0.944576 -s 2 -d 6 -p tcp -e 1040 -c 1 -i 21 -a 1 -x {2.1 3.0 4 ------- null}
h -t 0.944576 -s 2 -d 6 -p tcp -e 1040 -c 1 -i 21 -a 1 -x {2.1 3.0 -1 ------- null}
- -t 0.96318 -s 1 -d 6 -p tcp -e 1040 -c 0 -i 24 -a 0 -x {1.0 2.0 4 ------- null}
h -t 0.96318 -s 1 -d 6 -p tcp -e 1040 -c 0 -i 24 -a 0 -x {1.0 2.0 -1 ------- null}
r -t 0.967328 -s 6 -d 3 -p ack -e 40 -c 2 -i 19 -a 2 -x {4.0 3.1 2 ------- null}
h -t 0.967328 -s 3 -d 6 -p tcp -e 1040 -c 2 -i 29 -a 2 -x {3.1 4.0 3 ------- null}
h -t 0.967328 -s 3 -d 6 -p tcp -e 1040 -c 2 -i 30 -a 2 -x {3.1 4.0 4 ------- null}
h -t 0.967328 -s 3 -d 6 -p tcp -e 1040 -c 2 -i 31 -a 2 -x {3.1 4.0 5 ------- null}
+ -t 0.973212 -s 4 -d 6 -p tcp -e 1040 -c 3 -i 26 -a 3 -x {4.1 0.0 3 ------- null}
- -t 0.973212 -s 4 -d 6 -p tcp -e 1040 -c 3 -i 26 -a 3 -x {4.1 0.0 3 ------- null}
h -t 0.973212 -s 4 -d 6 -p tcp -e 1040 -c 3 -i 26 -a 3 -x {4.1 0.0 -1 ------- null}
+ -t 0.973212 -s 4 -d 6 -p tcp -e 1040 -c 3 -i 27 -a 3 -x {4.1 0.0 4 ------- null}
+ -t 0.973212 -s 4 -d 6 -p tcp -e 1040 -c 3 -i 28 -a 3 -x {4.1 0.0 5 ------- null}
- -t 0.9805 -s 1 -d 6 -p tcp -e 1040 -c 0 -i 25 -a 0 -x {1.0 2.0 5 ------- null}
h -t 0.9805 -s 1 -d 6 -p tcp -e 1040 -c 0 -i 25 -a 0 -x {1.0 2.0 -1 ------- null}
r -t 0.984388 -s 6 -d 3 -p tcp -e 1040 -c 1 -i 20 -a 1 -x {2.1 3.0 3 ------- null}
- -t 1.000124 -s 4 -d 6 -p tcp -e 1040 -c 3 -i 27 -a 3 -x {4.1 0.0 4 ------- null}
h -t 1.000124 -s 4 -d 6 -p tcp -e 1040 -c 3 -i 27 -a 3 -x {4.1 0.0 -1 ------- null}
r -t 1.002992 -s 6 -d 2 -p tcp -e 1040 -c 0 -i 23 -a 0 -x {1.0 2.0 3 ------- null}
+ -t 1.007328 -s 3 -d 6 -p tcp -e 1040 -c 2 -i 29 -a 2 -x {3.1 4.0 3 ------- null}
- -t 1.007328 -s 3 -d 6 -p tcp -e 1040 -c 2 -i 29 -a 2 -x {3.1 4.0 3 ------- null}
h -t 1.007328 -s 3 -d 6 -p tcp -e 1040 -c 2 -i 29 -a 2 -x {3.1 4.0 -1 ------- null}
+ -t 1.007328 -s 3 -d 6 -p tcp -e 1040 -c 2 -i 30 -a 2 -x {3.1 4.0 4 ------- null}
+ -t 1.007328 -s 3 -d 6 -p tcp -e 1040 -c 2 -i 31 -a 2 -x {3.1 4.0 5 ------- null}
- -t 1.017444 -s 4 -d 6 -p tcp -e 1040 -c 3 -i 28 -a 3 -x {4.1 0.0 5 ------- null}
h -t 1.017444 -s 4 -d 6 -p tcp -e 1040 -c 3 -i 28 -a 3 -x {4.1 0.0 -1 ------- null}
r -t 1.020312 -s 6 -d 2 -p tcp -e 1040 -c 0 -i 24 -a 0 -x {1.0 2.0 4 ------- null}
h -t 1.020312 -s 2 -d 6 -p ack -e 40 -c 0 -i 32 -a 0 -x {2.0 1.0 4 ------- null}
r -t 1.039936 -s 6 -d 0 -p tcp -e 1040 -c 3 -i 26 -a 3 -x {4.1 0.0 3 ------- null}
- -t 1.056176 -s 3 -d 6 -p tcp -e 1040 -c 2 -i 30 -a 2 -x {3.1 4.0 4 ------- null}
h -t 1.056176 -s 3 -d 6 -p tcp -e 1040 -c 2 -i 30 -a 2 -x {3.1 4.0 -1 ------- null}
r -t 1.057256 -s 6 -d 0 -p tcp -e 1040 -c 3 -i 27 -a 3 -x {4.1 0.0 4 ------- null}
h -t 1.057256 -s 0 -d 6 -p ack -e 40 -c 3 -i 33 -a 3 -x {0.0 4.1 4 ------- null}
+ -t 1.060312 -s 2 -d 6 -p ack -e 40 -c 0 -i 32 -a 0 -x {2.0 1.0 4 ------- null}
- -t 1.073496 -s 3 -d 6 -p tcp -e 1040 -c 2 -i 31 -a 2 -x {3.1 4.0 5 ------- null}
h -t 1.073496 -s 3 -d 6 -p tcp -e 1040 -c 2 -i 31 -a 2 -x {3.1 4.0 -1 ------- null}
r -t 1.078928 -s 6 -d 0 -p tcp -e 1040 -c 3 -i 28 -a 3 -x {4.1 0.0 5 ------- null}
h -t 1.084388 -s 3 -d 6 -p ack -e 40 -c 1 -i 34 -a 1 -x {3.0 2.1 3 ------- null}
r -t 1.095988 -s 6 -d 4 -p tcp -e 1040 -c 2 -i 29 -a 2 -x {3.1 4.0 3 ------- null}
+ -t 1.097256 -s 0 -d 6 -p ack -e 40 -c 3 -i 33 -a 3 -x {0.0 4.1 4 ------- null}
- -t 1.097256 -s 0 -d 6 -p ack -e 40 -c 3 -i 33 -a 3 -x {0.0 4.1 4 ------- null}
h -t 1.097256 -s 0 -d 6 -p ack -e 40 -c 3 -i 33 -a 3 -x {0.0 4.1 -1 ------- null}
- -t 1.107612 -s 2 -d 6 -p tcp -e 1040 -c 1 -i 22 -a 1 -x {2.1 3.0 5 ------- null}
h -t 1.107612 -s 2 -d 6 -p tcp -e 1040 -c 1 -i 22 -a 1 -x {2.1 3.0 -1 ------- null}
r -t 1.113308 -s 6 -d 4 -p tcp -e 1040 -c 2 -i 30 -a 2 -x {3.1 4.0 4 ------- null}
h -t 1.113308 -s 4 -d 6 -p ack -e 40 -c 2 -i 35 -a 2 -x {4.0 3.1 4 ------- null}
+ -t 1.124388 -s 3 -d 6 -p ack -e 40 -c 1 -i 34 -a 1 -x {3.0 2.1 3 ------- null}
- -t 1.124388 -s 3 -d 6 -p ack -e 40 -c 1 -i 34 -a 1 -x {3.0 2.1 3 ------- null}
h -t 1.124388 -s 3 -d 6 -p ack -e 40 -c 1 -i 34 -a 1 -x {3.0 2.1 -1 ------- null}
- -t 1.126148 -s 2 -d 6 -p ack -e 40 -c 0 -i 32 -a 0 -x {2.0 1.0 4 ------- null}
h -t 1.126148 -s 2 -d 6 -p ack -e 40 -c 0 -i 32 -a 0 -x {2.0 1.0 -1 ------- null}
r -t 1.130364 -s 6 -d 4 -p tcp -e 1040 -c 2 -i 31 -a 2 -x {3.1 4.0 5 ------- null}
r -t 1.147424 -s 6 -d 3 -p tcp -e 1040 -c 1 -i 21 -a 1 -x {2.1 3.0 4 ------- null}
r -t 1.1489 -s 6 -d 4 -p ack -e 40 -c 3 -i 33 -a 3 -x {0.0 4.1 4 ------- null}
h -t 1.1489 -s 4 -d 6 -p tcp -e 1040 -c 3 -i 36 -a 3 -x {4.1 0.0 6 ------- null}
h -t 1.1489 -s 4 -d 6 -p tcp -e 1040 -c 3 -i 37 -a 3 -x {4.1 0.0 7 ------- null}
h -t 1.1489 -s 4 -d 6 -p tcp -e 1040 -c 3 -i 38 -a 3 -x {4.1 0.0 8 ------- null}
+ -t 1.153308 -s 4 -d 6 -p ack -e 40 -c 2 -i 35 -a 2 -x {4.0 3.1 4 ------- null}
- -t 1.153308 -s 4 -d 6 -p ack -e 40 -c 2 -i 35 -a 2 -x {4.0 3.1 4 ------- null}
h -t 1.153308 -s 4 -d 6 -p ack -e 40 -c 2 -i 35 -a 2 -x {4.0 3.1 -1 ------- null}
r -t 1.16596 -s 6 -d 3 -p tcp -e 1040 -c 1 -i 22 -a 1 -x {2.1 3.0 5 ------- null}
h -t 1.16596 -s 3 -d 6 -p ack -e 40 -c 1 -i 39 -a 1 -x {3.0 2.1 5 ------- null}
r -t 1.167436 -s 6 -d 2 -p ack -e 40 -c 1 -i 34 -a 1 -x {3.0 2.1 3 ------- null}
h -t 1.167436 -s 2 -d 6 -p tcp -e 1040 -c 1 -i 40 -a 1 -x {2.1 3.0 6 ------- null}
h -t 1.167436 -s 2 -d 6 -p tcp -e 1040 -c 1 -i 41 -a 1 -x {2.1 3.0 7 ------- null}
r -t 1.168656 -s 6 -d 1 -p ack -e 40 -c 0 -i 32 -a 0 -x {2.0 1.0 4 ------- null}
h -t 1.168656 -s 1 -d 6 -p tcp -e 1040 -c 0 -i 42 -a 0 -x {1.0 2.0 6 ------- null}
h -t 1.168656 -s 1 -d 6 -p tcp -e 1040 -c 0 -i 43 -a 0 -x {1.0 2.0 7 ------- null}
h -t 1.168656 -s 1 -d 6 -p tcp -e 1040 -c 0 -i 44 -a 0 -x {1.0 2.0 8 ------- null}
h -t 1.178928 -s 0 -d 6 -p ack -e 40 -c 3 -i 45 -a 3 -x {0.0 4.1 5 ------- null}
+ -t 1.1889 -s 4 -d 6 -p tcp -e 1040 -c 3 -i 36 -a 3 -x {4.1 0.0 6 ------- null}
- -t 1.1889 -s 4 -d 6 -p tcp -e 1040 -c 3 -i 36 -a 3 -x {4.1 0.0 6 ------- null}
h -t 1.1889 -s 4 -d 6 -p tcp -e 1040 -c 3 -i 36 -a 3 -x {4.1 0.0 -1 ------- null}
+ -t 1.1889 -s 4 -d 6 -p tcp -e 1040 -c 3 -i 37 -a 3 -x {4.1 0.0 7 ------- null}
+ -t 1.1889 -s 4 -d 6 -p tcp -e 1040 -c 3 -i 38 -a 3 -x {4.1 0.0 8 ------- null}
r -t 1.194336 -s 6 -d 3 -p ack -e 40 -c 2 -i 35 -a 2 -x {4.0 3.1 4 ------- null}
h -t 1.194336 -s 3 -d 6 -p tcp -e 1040 -c 2 -i 46 -a 2 -x {3.1 4.0 6 ------- null}
h -t 1.194336 -s 3 -d 6 -p tcp -e 1040 -c 2 -i 47 -a 2 -x {3.1 4.0 7 ------- null}
h -t 1.194336 -s 3 -d 6 -p tcp -e 1040 -c 2 -i 48 -a 2 -x {3.1 4.0 8 ------- null}
+ -t 1.20596 -s 3 -d 6 -p ack -e 40 -c 1 -i 39 -a 1 -x {3.0 2.1 5 ------- null}
- -t 1.20596 -s 3 -d 6 -p ack -e 40 -c 1 -i 39 -a 1 -x {3.0 2.1 5 ------- null}
h -t 1.20596 -s 3 -d 6 -p ack -e 40 -c 1 -i 39 -a 1 -x {3.0 2.1 -1 ------- null}
+ -t 1.207436 -s 2 -d 6 -p tcp -e 1040 -c 1 -i 40 -a 1 -x {2.1 3.0 6 ------- null}
- -t 1.207436 -s 2 -d 6 -p tcp -e 1040 -c 1 -i 40 -a 1 -x {2.1 3.0 6 ------- null}
h -t 1.207436 -s 2 -d 6 -p tcp -e 1040 -c 1 -i 40 -a 1 -x {2.1 3.0 -1 ------- null}
+ -t 1.207436 -s 2 -d 6 -p tcp -e 1040 -c 1 -i 41 -a 1 -x {2.1 3.0 7 ------- null}
+ -t 1.208656 -s 1 -d 6 -p tcp -e 1040 -c 0 -i 42 -a 0 -x {1.0 2.0 6 ------- null}
- -t 1.208656 -s 1 -d 6 -p tcp -e 1040 -c 0 -i 42 -a 0 -x {1.0 2.0 6 ------- null}
h -t 1.208656 -s 1 -d 6 -p tcp -e 1040 -c 0 -i 42 -a 0 -x {1.0 2.0 -1 ------- null}
+ -t 1.208656 -s 1 -d 6 -p tcp -e 1040 -c 0 -i 43 -a 0 -x {1.0 2.0 7 ------- null}
+ -t 1.208656 -s 1 -d 6 -p tcp -e 1040 -c 0 -i 44 -a 0 -x {1.0 2.0 8 ------- null}
+ -t 1.218928 -s 0 -d 6 -p ack -e 40 -c 3 -i 45 -a 3 -x {0.0 4.1 5 ------- null}
- -t 1.218928 -s 0 -d 6 -p ack -e 40 -c 3 -i 45 -a 3 -x {0.0 4.1 5 ------- null}
h -t 1.218928 -s 0 -d 6 -p ack -e 40 -c 3 -i 45 -a 3 -x {0.0 4.1 -1 ------- null}
- -t 1.2206 -s 4 -d 6 -p tcp -e 1040 -c 3 -i 37 -a 3 -x {4.1 0.0 7 ------- null}
h -t 1.2206 -s 4 -d 6 -p tcp -e 1040 -c 3 -i 37 -a 3 -x {4.1 0.0 -1 ------- null}
h -t 1.230364 -s 4 -d 6 -p ack -e 40 -c 2 -i 49 -a 2 -x {4.0 3.1 5 ------- null}
+ -t 1.234336 -s 3 -d 6 -p tcp -e 1040 -c 2 -i 46 -a 2 -x {3.1 4.0 6 ------- null}
+ -t 1.234336 -s 3 -d 6 -p tcp -e 1040 -c 2 -i 47 -a 2 -x {3.1 4.0 7 ------- null}
+ -t 1.234336 -s 3 -d 6 -p tcp -e 1040 -c 2 -i 48 -a 2 -x {3.1 4.0 8 ------- null}
- -t 1.237916 -s 1 -d 6 -p tcp -e 1040 -c 0 -i 43 -a 0 -x {1.0 2.0 7 ------- null}
h -t 1.237916 -s 1 -d 6 -p tcp -e 1040 -c 0 -i 43 -a 0 -x {1.0 2.0 -1 ------- null}
r -t 1.243352 -s 6 -d 2 -p tcp -e 1040 -c 0 -i 25 -a 0 -x {1.0 2.0 5 ------- null}
- -t 1.256452 -s 1 -d 6 -p tcp -e 1040 -c 0 -i 44 -a 0 -x {1.0 2.0 8 ------- null}
h -t 1.256452 -s 1 -d 6 -p tcp -e 1040 -c 0 -i 44 -a 0 -x {1.0 2.0 -1 ------- null}
r -t 1.260412 -s 6 -d 0 -p tcp -e 1040 -c 3 -i 36 -a 3 -x {4.1 0.0 6 ------- null}
+ -t 1.270364 -s 4 -d 6 -p ack -e 40 -c 2 -i 49 -a 2 -x {4.0 3.1 5 ------- null}
r -t 1.277728 -s 6 -d 2 -p tcp -e 1040 -c 0 -i 42 -a 0 -x {1.0 2.0 6 ------- null}
h -t 1.277728 -s 2 -d 6 -p ack -e 40 -c 0 -i 50 -a 0 -x {2.0 1.0 6 ------- null}
r -t 1.279204 -s 6 -d 4 -p ack -e 40 -c 3 -i 45 -a 3 -x {0.0 4.1 5 ------- null}
h -t 1.279204 -s 4 -d 6 -p tcp -e 1040 -c 3 -i 51 -a 3 -x {4.1 0.0 9 ------- null}
h -t 1.279204 -s 4 -d 6 -p tcp -e 1040 -c 3 -i 52 -a 3 -x {4.1 0.0 10 ------- null}
- -t 1.292116 -s 4 -d 6 -p tcp -e 1040 -c 3 -i 38 -a 3 -x {4.1 0.0 8 ------- null}
h -t 1.292116 -s 4 -d 6 -p tcp -e 1040 -c 3 -i 38 -a 3 -x {4.1 0.0 -1 ------- null}
- -t 1.293592 -s 3 -d 6 -p tcp -e 1040 -c 2 -i 46 -a 2 -x {3.1 4.0 6 ------- null}
h -t 1.293592 -s 3 -d 6 -p tcp -e 1040 -c 2 -i 46 -a 2 -x {3.1 4.0 -1 ------- null}
r -t 1.296264 -s 6 -d 2 -p tcp -e 1040 -c 0 -i 43 -a 0 -x {1.0 2.0 7 ------- null}
- -t 1.310908 -s 4 -d 6 -p ack -e 40 -c 2 -i 49 -a 2 -x {4.0 3.1 5 ------- null}
h -t 1.310908 -s 4 -d 6 -p ack -e 40 -c 2 -i 49 -a 2 -x {4.0 3.1 -1 ------- null}
r -t 1.314608 -s 6 -d 2 -p tcp -e 1040 -c 0 -i 44 -a 0 -x {1.0 2.0 8 ------- null}
h -t 1.314608 -s 2 -d 6 -p ack -e 40 -c 0 -i 53 -a 0 -x {2.0 1.0 8 ------- null}
+ -t 1.317728 -s 2 -d 6 -p ack -e 40 -c 0 -i 50 -a 0 -x {2.0 1.0 6 ------- null}
+ -t 1.319204 -s 4 -d 6 -p tcp -e 1040 -c 3 -i 51 -a 3 -x {4.1 0.0 9 ------- null}
- -t 1.319204 -s 4 -d 6 -p tcp -e 1040 -c 3 -i 51 -a 3 -x {4.1 0.0 9 ------- null}
h -t 1.319204 -s 4 -d 6 -p tcp -e 1040 -c 3 -i 51 -a 3 -x {4.1 0.0 -1 ------- null}
+ -t 1.319204 -s 4 -d 6 -p tcp -e 1040 -c 3 -i 52 -a 3 -x {4.1 0.0 10 ------- null}
- -t 1.331296 -s 3 -d 6 -p tcp -e 1040 -c 2 -i 47 -a 2 -x {3.1 4.0 7 ------- null}
h -t 1.331296 -s 3 -d 6 -p tcp -e 1040 -c 2 -i 47 -a 2 -x {3.1 4.0 -1 ------- null}
r -t 1.331928 -s 6 -d 0 -p tcp -e 1040 -c 3 -i 37 -a 3 -x {4.1 0.0 7 ------- null}
h -t 1.331928 -s 0 -d 6 -p ack -e 40 -c 3 -i 54 -a 3 -x {0.0 4.1 7 ------- null}
r -t 1.333404 -s 6 -d 2 -p ack -e 40 -c 1 -i 39 -a 1 -x {3.0 2.1 5 ------- null}
h -t 1.333404 -s 2 -d 6 -p tcp -e 1040 -c 1 -i 55 -a 1 -x {2.1 3.0 8 ------- null}
h -t 1.333404 -s 2 -d 6 -p tcp -e 1040 -c 1 -i 56 -a 1 -x {2.1 3.0 9 ------- null}
h -t 1.333404 -s 2 -d 6 -p tcp -e 1040 -c 1 -i 57 -a 1 -x {2.1 3.0 10 ------- null}
- -t 1.348616 -s 3 -d 6 -p tcp -e 1040 -c 2 -i 48 -a 2 -x {3.1 4.0 8 ------- null}
h -t 1.348616 -s 3 -d 6 -p tcp -e 1040 -c 2 -i 48 -a 2 -x {3.1 4.0 -1 ------- null}
r -t 1.35072 -s 6 -d 0 -p tcp -e 1040 -c 3 -i 38 -a 3 -x {4.1 0.0 8 ------- null}
r -t 1.353224 -s 6 -d 3 -p ack -e 40 -c 2 -i 49 -a 2 -x {4.0 3.1 5 ------- null}
h -t 1.353224 -s 3 -d 6 -p tcp -e 1040 -c 2 -i 58 -a 2 -x {3.1 4.0 9 ------- null}
h -t 1.353224 -s 3 -d 6 -p tcp -e 1040 -c 2 -i 59 -a 2 -x {3.1 4.0 10 ------- null}
+ -t 1.354608 -s 2 -d 6 -p ack -e 40 -c 0 -i 53 -a 0 -x {2.0 1.0 8 ------- null}
r -t 1.371108 -s 6 -d 4 -p tcp -e 1040 -c 2 -i 46 -a 2 -x {3.1 4.0 6 ------- null}
+ -t 1.371928 -s 0 -d 6 -p ack -e 40 -c 3 -i 54 -a 3 -x {0.0 4.1 7 ------- null}
- -t 1.371928 -s 0 -d 6 -p ack -e 40 -c 3 -i 54 -a 3 -x {0.0 4.1 7 ------- null}
h -t 1.371928 -s 0 -d 6 -p ack -e 40 -c 3 -i 54 -a 3 -x {0.0 4.1 -1 ------- null}
+ -t 1.373404 -s 2 -d 6 -p tcp -e 1040 -c 1 -i 55 -a 1 -x {2.1 3.0 8 ------- null}
+ -t 1.373404 -s 2 -d 6 -p tcp -e 1040 -c 1 -i 56 -a 1 -x {2.1 3.0 9 ------- null}
+ -t 1.373404 -s 2 -d 6 -p tcp -e 1040 -c 1 -i 57 -a 1 -x {2.1 3.0 10 ------- null}
- -t 1.38402 -s 4 -d 6 -p tcp -e 1040 -c 3 -i 52 -a 3 -x {4.1 0.0 10 ------- null}
h -t 1.38402 -s 4 -d 6 -p tcp -e 1040 -c 3 -i 52 -a 3 -x {4.1 0.0 -1 ------- null}
r -t 1.388428 -s 6 -d 4 -p tcp -e 1040 -c 2 -i 47 -a 2 -x {3.1 4.0 7 ------- null}
h -t 1.388428 -s 4 -d 6 -p ack -e 40 -c 2 -i 60 -a 2 -x {4.0 3.1 7 ------- null}
+ -t 1.393224 -s 3 -d 6 -p tcp -e 1040 -c 2 -i 58 -a 2 -x {3.1 4.0 9 ------- null}
- -t 1.393224 -s 3 -d 6 -p tcp -e 1040 -c 2 -i 58 -a 2 -x {3.1 4.0 9 ------- null}
h -t 1.393224 -s 3 -d 6 -p tcp -e 1040 -c 2 -i 58 -a 2 -x {3.1 4.0 -1 ------- null}
+ -t 1.393224 -s 3 -d 6 -p tcp -e 1040 -c 2 -i 59 -a 2 -x {3.1 4.0 10 ------- null}
r -t 1.406772 -s 6 -d 4 -p tcp -e 1040 -c 2 -i 48 -a 2 -x {3.1 4.0 8 ------- null}
- -t 1.421928 -s 3 -d 6 -p tcp -e 1040 -c 2 -i 59 -a 2 -x {3.1 4.0 10 ------- null}
h -t 1.421928 -s 3 -d 6 -p tcp -e 1040 -c 2 -i 59 -a 2 -x {3.1 4.0 -1 ------- null}
r -t 1.423832 -s 6 -d 0 -p tcp -e 1040 -c 3 -i 51 -a 3 -x {4.1 0.0 9 ------- null}
h -t 1.423832 -s 0 -d 6 -p ack -e 40 -c 3 -i 61 -a 3 -x {0.0 4.1 9 ------- null}
r -t 1.42762 -s 6 -d 4 -p ack -e 40 -c 3 -i 54 -a 3 -x {0.0 4.1 7 ------- null}
h -t 1.42762 -s 4 -d 6 -p tcp -e 1040 -c 3 -i 62 -a 3 -x {4.1 0.0 11 ------- null}
h -t 1.42762 -s 4 -d 6 -p tcp -e 1040 -c 3 -i 63 -a 3 -x {4.1 0.0 12 ------- null}
h -t 1.42762 -s 4 -d 6 -p tcp -e 1040 -c 3 -i 64 -a 3 -x {4.1 0.0 13 ------- null}
+ -t 1.428428 -s 4 -d 6 -p ack -e 40 -c 2 -i 60 -a 2 -x {4.0 3.1 7 ------- null}
- -t 1.428428 -s 4 -d 6 -p ack -e 40 -c 2 -i 60 -a 2 -x {4.0 3.1 7 ------- null}
h -t 1.428428 -s 4 -d 6 -p ack -e 40 -c 2 -i 60 -a 2 -x {4.0 3.1 -1 ------- null}
r -t 1.44468 -s 6 -d 0 -p tcp -e 1040 -c 3 -i 52 -a 3 -x {4.1 0.0 10 ------- null}
r -t 1.46174 -s 6 -d 4 -p tcp -e 1040 -c 2 -i 58 -a 2 -x {3.1 4.0 9 ------- null}
h -t 1.46174 -s 4 -d 6 -p ack -e 40 -c 2 -i 65 -a 2 -x {4.0 3.1 9 ------- null}
+ -t 1.463832 -s 0 -d 6 -p ack -e 40 -c 3 -i 61 -a 3 -x {0.0 4.1 9 ------- null}
- -t 1.463832 -s 0 -d 6 -p ack -e 40 -c 3 -i 61 -a 3 -x {0.0 4.1 9 ------- null}
h -t 1.463832 -s 0 -d 6 -p ack -e 40 -c 3 -i 61 -a 3 -x {0.0 4.1 -1 ------- null}
+ -t 1.46762 -s 4 -d 6 -p tcp -e 1040 -c 3 -i 62 -a 3 -x {4.1 0.0 11 ------- null}
- -t 1.46762 -s 4 -d 6 -p tcp -e 1040 -c 3 -i 62 -a 3 -x {4.1 0.0 11 ------- null}
h -t 1.46762 -s 4 -d 6 -p tcp -e 1040 -c 3 -i 62 -a 3 -x {4.1 0.0 -1 ------- null}
+ -t 1.46762 -s 4 -d 6 -p tcp -e 1040 -c 3 -i 63 -a 3 -x {4.1 0.0 12 ------- null}
+ -t 1.46762 -s 4 -d 6 -p tcp -e 1040 -c 3 -i 64 -a 3 -x {4.1 0.0 13 ------- null}
r -t 1.47906 -s 6 -d 4 -p tcp -e 1040 -c 2 -i 59 -a 2 -x {3.1 4.0 10 ------- null}
r -t 1.48028 -s 6 -d 3 -p ack -e 40 -c 2 -i 60 -a 2 -x {4.0 3.1 7 ------- null}
h -t 1.48028 -s 3 -d 6 -p tcp -e 1040 -c 2 -i 66 -a 2 -x {3.1 4.0 11 ------- null}
h -t 1.48028 -s 3 -d 6 -p tcp -e 1040 -c 2 -i 67 -a 2 -x {3.1 4.0 12 ------- null}
h -t 1.48028 -s 3 -d 6 -p tcp -e 1040 -c 2 -i 68 -a 2 -x {3.1 4.0 13 ------- null}
- -t 1.484676 -s 4 -d 6 -p tcp -e 1040 -c 3 -i 63 -a 3 -x {4.1 0.0 12 ------- null}
h -t 1.484676 -s 4 -d 6 -p tcp -e 1040 -c 3 -i 63 -a 3 -x {4.1 0.0 -1 ------- null}
- -t 1.501732 -s 4 -d 6 -p tcp -e 1040 -c 3 -i 64 -a 3 -x {4.1 0.0 13 ------- null}
h -t 1.501732 -s 4 -d 6 -p tcp -e 1040 -c 3 -i 64 -a 3 -x {4.1 0.0 -1 ------- null}
+ -t 1.50174 -s 4 -d 6 -p ack -e 40 -c 2 -i 65 -a 2 -x {4.0 3.1 9 ------- null}
r -t 1.50486 -s 6 -d 4 -p ack -e 40 -c 3 -i 61 -a 3 -x {0.0 4.1 9 ------- null}
h -t 1.50486 -s 4 -d 6 -p tcp -e 1040 -c 3 -i 69 -a 3 -x {4.1 0.0 14 ------- null}
h -t 1.50486 -s 4 -d 6 -p tcp -e 1040 -c 3 -i 70 -a 3 -x {4.1 0.0 15 ------- null}
h -t 1.50486 -s 4 -d 6 -p tcp -e 1040 -c 3 -i 71 -a 3 -x {4.1 0.0 16 ------- null}
- -t 1.518788 -s 4 -d 6 -p ack -e 40 -c 2 -i 65 -a 2 -x {4.0 3.1 9 ------- null}
h -t 1.518788 -s 4 -d 6 -p ack -e 40 -c 2 -i 65 -a 2 -x {4.0 3.1 -1 ------- null}
+ -t 1.52028 -s 3 -d 6 -p tcp -e 1040 -c 2 -i 66 -a 2 -x {3.1 4.0 11 ------- null}
- -t 1.52028 -s 3 -d 6 -p tcp -e 1040 -c 2 -i 66 -a 2 -x {3.1 4.0 11 ------- null}
h -t 1.52028 -s 3 -d 6 -p tcp -e 1040 -c 2 -i 66 -a 2 -x {3.1 4.0 -1 ------- null}
+ -t 1.52028 -s 3 -d 6 -p tcp -e 1040 -c 2 -i 67 -a 2 -x {3.1 4.0 12 ------- null}
+ -t 1.52028 -s 3 -d 6 -p tcp -e 1040 -c 2 -i 68 -a 2 -x {3.1 4.0 13 ------- null}
r -t 1.524488 -s 6 -d 0 -p tcp -e 1040 -c 3 -i 62 -a 3 -x {4.1 0.0 11 ------- null}
h -t 1.524488 -s 0 -d 6 -p ack -e 40 -c 3 -i 72 -a 3 -x {0.0 4.1 11 ------- null}
- -t 1.537336 -s 3 -d 6 -p tcp -e 1040 -c 2 -i 67 -a 2 -x {3.1 4.0 12 ------- null}
h -t 1.537336 -s 3 -d 6 -p tcp -e 1040 -c 2 -i 67 -a 2 -x {3.1 4.0 -1 ------- null}
r -t 1.541544 -s 6 -d 0 -p tcp -e 1040 -c 3 -i 63 -a 3 -x {4.1 0.0 12 ------- null}
+ -t 1.54486 -s 4 -d 6 -p tcp -e 1040 -c 3 -i 69 -a 3 -x {4.1 0.0 14 ------- null}
- -t 1.54486 -s 4 -d 6 -p tcp -e 1040 -c 3 -i 69 -a 3 -x {4.1 0.0 14 ------- null}
h -t 1.54486 -s 4 -d 6 -p tcp -e 1040 -c 3 -i 69 -a 3 -x {4.1 0.0 -1 ------- null}
+ -t 1.54486 -s 4 -d 6 -p tcp -e 1040 -c 3 -i 70 -a 3 -x {4.1 0.0 15 ------- null}
+ -t 1.54486 -s 4 -d 6 -p tcp -e 1040 -c 3 -i 71 -a 3 -x {4.1 0.0 16 ------- null}
- -t 1.554392 -s 3 -d 6 -p tcp -e 1040 -c 2 -i 68 -a 2 -x {3.1 4.0 13 ------- null}
h -t 1.554392 -s 3 -d 6 -p tcp -e 1040 -c 2 -i 68 -a 2 -x {3.1 4.0 -1 ------- null}
r -t 1.5586 -s 6 -d 0 -p tcp -e 1040 -c 3 -i 64 -a 3 -x {4.1 0.0 13 ------- null}
h -t 1.5586 -s 0 -d 6 -p ack -e 40 -c 3 -i 73 -a 3 -x {0.0 4.1 13 ------- null}
r -t 1.559816 -s 6 -d 3 -p ack -e 40 -c 2 -i 65 -a 2 -x {4.0 3.1 9 ------- null}
h -t 1.559816 -s 3 -d 6 -p tcp -e 1040 -c 2 -i 74 -a 2 -x {3.1 4.0 14 ------- null}
h -t 1.559816 -s 3 -d 6 -p tcp -e 1040 -c 2 -i 75 -a 2 -x {3.1 4.0 15 ------- null}
h -t 1.559816 -s 3 -d 6 -p tcp -e 1040 -c 2 -i 76 -a 2 -x {3.1 4.0 16 ------- null}
+ -t 1.564488 -s 0 -d 6 -p ack -e 40 -c 3 -i 72 -a 3 -x {0.0 4.1 11 ------- null}
- -t 1.564488 -s 0 -d 6 -p ack -e 40 -c 3 -i 72 -a 3 -x {0.0 4.1 11 ------- null}
h -t 1.564488 -s 0 -d 6 -p ack -e 40 -c 3 -i 72 -a 3 -x {0.0 4.1 -1 ------- null}
- -t 1.571708 -s 4 -d 6 -p tcp -e 1040 -c 3 -i 70 -a 3 -x {4.1 0.0 15 ------- null}
h -t 1.571708 -s 4 -d 6 -p tcp -e 1040 -c 3 -i 70 -a 3 -x {4.1 0.0 -1 ------- null}
r -t 1.577148 -s 6 -d 4 -p tcp -e 1040 -c 2 -i 66 -a 2 -x {3.1 4.0 11 ------- null}
h -t 1.577148 -s 4 -d 6 -p ack -e 40 -c 2 -i 77 -a 2 -x {4.0 3.1 11 ------- null}
r -t 1.594204 -s 6 -d 4 -p tcp -e 1040 -c 2 -i 67 -a 2 -x {3.1 4.0 12 ------- null}
+ -t 1.5986 -s 0 -d 6 -p ack -e 40 -c 3 -i 73 -a 3 -x {0.0 4.1 13 ------- null}
+ -t 1.599816 -s 3 -d 6 -p tcp -e 1040 -c 2 -i 74 -a 2 -x {3.1 4.0 14 ------- null}
- -t 1.599816 -s 3 -d 6 -p tcp -e 1040 -c 2 -i 74 -a 2 -x {3.1 4.0 14 ------- null}
h -t 1.599816 -s 3 -d 6 -p tcp -e 1040 -c 2 -i 74 -a 2 -x {3.1 4.0 -1 ------- null}
+ -t 1.599816 -s 3 -d 6 -p tcp -e 1040 -c 2 -i 75 -a 2 -x {3.1 4.0 15 ------- null}
+ -t 1.599816 -s 3 -d 6 -p tcp -e 1040 -c 2 -i 76 -a 2 -x {3.1 4.0 16 ------- null}
r -t 1.61152 -s 6 -d 0 -p tcp -e 1040 -c 3 -i 69 -a 3 -x {4.1 0.0 14 ------- null}
- -t 1.61453599999999 -s 4 -d 6 -p tcp -e 1040 -c 3 -i 71 -a 3 -x {4.1 0.0 16 ------- null}
h -t 1.61453599999999 -s 4 -d 6 -p tcp -e 1040 -c 3 -i 71 -a 3 -x {4.1 0.0 -1 ------- null}
+ -t 1.617148 -s 4 -d 6 -p ack -e 40 -c 2 -i 77 -a 2 -x {4.0 3.1 11 ------- null}
- -t 1.63185199999999 -s 3 -d 6 -p tcp -e 1040 -c 2 -i 75 -a 2 -x {3.1 4.0 15 ------- null}
h -t 1.63185199999999 -s 3 -d 6 -p tcp -e 1040 -c 2 -i 75 -a 2 -x {3.1 4.0 -1 ------- null}