V -t * -v 1.0a5 -a 0
A -t * -n 1 -p 0 -o 0x7fffffff -c 30 -a 1
A -t * -h 1 -m 1073741823 -s 0
c -t * -i 4 -n yellow
c -t * -i 0 -n blue
c -t * -i 5 -n violet
c -t * -i 1 -n red
c -t * -i 2 -n cyan
c -t * -i 3 -n green
n -t * -a 4 -s 4 -S UP -v circle -c black -i black
n -t * -a 0 -s 0 -S UP -v circle -c black -i black
n -t * -a 1 -s 1 -S UP -v circle -c black -i black
n -t * -a 2 -s 2 -S UP -v circle -c black -i black
n -t * -a 3 -s 3 -S UP -v circle -c black -i black
X -t * -n 5 -r 0.5Mb -D 40ms -o left
L -t * -s 5 -d 0 -o up
L -t * -s 5 -d 1 -o down
L -t * -s 5 -d 2 -o up
L -t * -s 5 -d 3 -o down
L -t * -s 5 -d 4 -o up
h -t 0.5 -s 1 -d 5 -p tcp -e 40 -c 0 -i 0 -a 0 -x {1.0 2.0 0 ------- null}
h -t 0.5 -s 3 -d 5 -p tcp -e 40 -c 1 -i 1 -a 1 -x {3.0 4.0 0 ------- null}
+ -t 0.54 -s 1 -d 5 -p tcp -e 40 -c 0 -i 0 -a 0 -x {1.0 2.0 0 ------- null}
- -t 0.54 -s 1 -d 5 -p tcp -e 40 -c 0 -i 0 -a 0 -x {1.0 2.0 0 ------- null}
h -t 0.54 -s 1 -d 5 -p tcp -e 40 -c 0 -i 0 -a 0 -x {1.0 2.0 -1 ------- null}
+ -t 0.54 -s 3 -d 5 -p tcp -e 40 -c 1 -i 1 -a 1 -x {3.0 4.0 0 ------- null}
- -t 0.54 -s 3 -d 5 -p tcp -e 40 -c 1 -i 1 -a 1 -x {3.0 4.0 0 ------- null}
h -t 0.54 -s 3 -d 5 -p tcp -e 40 -c 1 -i 1 -a 1 -x {3.0 4.0 -1 ------- null}
r -t 0.581288 -s 5 -d 2 -p tcp -e 40 -c 0 -i 0 -a 0 -x {1.0 2.0 0 ------- null}
h -t 0.581288 -s 2 -d 5 -p ack -e 40 -c 0 -i 2 -a 0 -x {2.0 1.0 0 ------- null}
r -t 0.582508 -s 5 -d 4 -p tcp -e 40 -c 1 -i 1 -a 1 -x {3.0 4.0 0 ------- null}
h -t 0.582508 -s 4 -d 5 -p ack -e 40 -c 1 -i 3 -a 1 -x {4.0 3.0 0 ------- null}
+ -t 0.621288 -s 2 -d 5 -p ack -e 40 -c 0 -i 2 -a 0 -x {2.0 1.0 0 ------- null}
- -t 0.621288 -s 2 -d 5 -p ack -e 40 -c 0 -i 2 -a 0 -x {2.0 1.0 0 ------- null}
h -t 0.621288 -s 2 -d 5 -p ack -e 40 -c 0 -i 2 -a 0 -x {2.0 1.0 -1 ------- null}
+ -t 0.622508 -s 4 -d 5 -p ack -e 40 -c 1 -i 3 -a 1 -x {4.0 3.0 0 ------- null}
- -t 0.622508 -s 4 -d 5 -p ack -e 40 -c 1 -i 3 -a 1 -x {4.0 3.0 0 ------- null}
h -t 0.622508 -s 4 -d 5 -p ack -e 40 -c 1 -i 3 -a 1 -x {4.0 3.0 -1 ------- null}
r -t 0.662316 -s 5 -d 1 -p ack -e 40 -c 0 -i 2 -a 0 -x {2.0 1.0 0 ------- null}
h -t 0.662316 -s 1 -d 5 -p tcp -e 1040 -c 0 -i 4 -a 0 -x {1.0 2.0 1 ------- null}
h -t 0.662316 -s 1 -d 5 -p tcp -e 1040 -c 0 -i 5 -a 0 -x {1.0 2.0 2 ------- null}
r -t 0.663536 -s 5 -d 3 -p ack -e 40 -c 1 -i 3 -a 1 -x {4.0 3.0 0 ------- null}
h -t 0.663536 -s 3 -d 5 -p tcp -e 1040 -c 1 -i 6 -a 1 -x {3.0 4.0 1 ------- null}
h -t 0.663536 -s 3 -d 5 -p tcp -e 1040 -c 1 -i 7 -a 1 -x {3.0 4.0 2 ------- null}
+ -t 0.702316 -s 1 -d 5 -p tcp -e 1040 -c 0 -i 4 -a 0 -x {1.0 2.0 1 ------- null}
- -t 0.702316 -s 1 -d 5 -p tcp -e 1040 -c 0 -i 4 -a 0 -x {1.0 2.0 1 ------- null}
h -t 0.702316 -s 1 -d 5 -p tcp -e 1040 -c 0 -i 4 -a 0 -x {1.0 2.0 -1 ------- null}
+ -t 0.702316 -s 1 -d 5 -p tcp -e 1040 -c 0 -i 5 -a 0 -x {1.0 2.0 2 ------- null}
+ -t 0.703536 -s 3 -d 5 -p tcp -e 1040 -c 1 -i 6 -a 1 -x {3.0 4.0 1 ------- null}
- -t 0.703536 -s 3 -d 5 -p tcp -e 1040 -c 1 -i 6 -a 1 -x {3.0 4.0 1 ------- null}
h -t 0.703536 -s 3 -d 5 -p tcp -e 1040 -c 1 -i 6 -a 1 -x {3.0 4.0 -1 ------- null}
+ -t 0.703536 -s 3 -d 5 -p tcp -e 1040 -c 1 -i 7 -a 1 -x {3.0 4.0 2 ------- null}
- -t 0.719372 -s 1 -d 5 -p tcp -e 1040 -c 0 -i 5 -a 0 -x {1.0 2.0 2 ------- null}
h -t 0.719372 -s 1 -d 5 -p tcp -e 1040 -c 0 -i 5 -a 0 -x {1.0 2.0 -1 ------- null}
- -t 0.737976 -s 3 -d 5 -p tcp -e 1040 -c 1 -i 7 -a 1 -x {3.0 4.0 2 ------- null}
h -t 0.737976 -s 3 -d 5 -p tcp -e 1040 -c 1 -i 7 -a 1 -x {3.0 4.0 -1 ------- null}
r -t 0.759184 -s 5 -d 2 -p tcp -e 1040 -c 0 -i 4 -a 0 -x {1.0 2.0 1 ------- null}
r -t 0.777788 -s 5 -d 4 -p tcp -e 1040 -c 1 -i 6 -a 1 -x {3.0 4.0 1 ------- null}
r -t 0.796132 -s 5 -d 4 -p tcp -e 1040 -c 1 -i 7 -a 1 -x {3.0 4.0 2 ------- null}
h -t 0.796132 -s 4 -d 5 -p ack -e 40 -c 1 -i 8 -a 1 -x {4.0 3.0 2 ------- null}
r -t 0.813192 -s 5 -d 2 -p tcp -e 1040 -c 0 -i 5 -a 0 -x {1.0 2.0 2 ------- null}
h -t 0.813192 -s 2 -d 5 -p ack -e 40 -c 0 -i 9 -a 0 -x {2.0 1.0 2 ------- null}
+ -t 0.836132 -s 4 -d 5 -p ack -e 40 -c 1 -i 8 -a 1 -x {4.0 3.0 2 ------- null}
- -t 0.836132 -s 4 -d 5 -p ack -e 40 -c 1 -i 8 -a 1 -x {4.0 3.0 2 ------- null}
h -t 0.836132 -s 4 -d 5 -p ack -e 40 -c 1 -i 8 -a 1 -x {4.0 3.0 -1 ------- null}
+ -t 0.853192 -s 2 -d 5 -p ack -e 40 -c 0 -i 9 -a 0 -x {2.0 1.0 2 ------- null}
- -t 0.853192 -s 2 -d 5 -p ack -e 40 -c 0 -i 9 -a 0 -x {2.0 1.0 2 ------- null}
h -t 0.853192 -s 2 -d 5 -p ack -e 40 -c 0 -i 9 -a 0 -x {2.0 1.0 -1 ------- null}
r -t 0.87716 -s 5 -d 3 -p ack -e 40 -c 1 -i 8 -a 1 -x {4.0 3.0 2 ------- null}
h -t 0.87716 -s 3 -d 5 -p tcp -e 1040 -c 1 -i 10 -a 1 -x {3.0 4.0 3 ------- null}
h -t 0.87716 -s 3 -d 5 -p tcp -e 1040 -c 1 -i 11 -a 1 -x {3.0 4.0 4 ------- null}
h -t 0.87716 -s 3 -d 5 -p tcp -e 1040 -c 1 -i 12 -a 1 -x {3.0 4.0 5 ------- null}
r -t 0.89422 -s 5 -d 1 -p ack -e 40 -c 0 -i 9 -a 0 -x {2.0 1.0 2 ------- null}
h -t 0.89422 -s 1 -d 5 -p tcp -e 1040 -c 0 -i 13 -a 0 -x {1.0 2.0 3 ------- null}
h -t 0.89422 -s 1 -d 5 -p tcp -e 1040 -c 0 -i 14 -a 0 -x {1.0 2.0 4 ------- null}
h -t 0.89422 -s 1 -d 5 -p tcp -e 1040 -c 0 -i 15 -a 0 -x {1.0 2.0 5 ------- null}
+ -t 0.91716 -s 3 -d 5 -p tcp -e 1040 -c 1 -i 10 -a 1 -x {3.0 4.0 3 ------- null}
- -t 0.91716 -s 3 -d 5 -p tcp -e 1040 -c 1 -i 10 -a 1 -x {3.0 4.0 3 ------- null}
h -t 0.91716 -s 3 -d 5 -p tcp -e 1040 -c 1 -i 10 -a 1 -x {3.0 4.0 -1 ------- null}
+ -t 0.91716 -s 3 -d 5 -p tcp -e 1040 -c 1 -i 11 -a 1 -x {3.0 4.0 4 ------- null}
+ -t 0.91716 -s 3 -d 5 -p tcp -e 1040 -c 1 -i 12 -a 1 -x {3.0 4.0 5 ------- null}
- -t 0.934216 -s 3 -d 5 -p tcp -e 1040 -c 1 -i 11 -a 1 -x {3.0 4.0 4 ------- null}
h -t 0.934216 -s 3 -d 5 -p tcp -e 1040 -c 1 -i 11 -a 1 -x {3.0 4.0 -1 ------- null}
+ -t 0.93422 -s 1 -d 5 -p tcp -e 1040 -c 0 -i 13 -a 0 -x {1.0 2.0 3 ------- null}
- -t 0.93422 -s 1 -d 5 -p tcp -e 1040 -c 0 -i 13 -a 0 -x {1.0 2.0 3 ------- null}
h -t 0.93422 -s 1 -d 5 -p tcp -e 1040 -c 0 -i 13 -a 0 -x {1.0 2.0 -1 ------- null}
+ -t 0.93422 -s 1 -d 5 -p tcp -e 1040 -c 0 -i 14 -a 0 -x {1.0 2.0 4 ------- null}
+ -t 0.93422 -s 1 -d 5 -p tcp -e 1040 -c 0 -i 15 -a 0 -x {1.0 2.0 5 ------- null}
- -t 0.951796 -s 1 -d 5 -p tcp -e 1040 -c 0 -i 14 -a 0 -x {1.0 2.0 4 ------- null}
h -t 0.951796 -s 1 -d 5 -p tcp -e 1040 -c 0 -i 14 -a 0 -x {1.0 2.0 -1 ------- null}
- -t 0.97014 -s 1 -d 5 -p tcp -e 1040 -c 0 -i 15 -a 0 -x {1.0 2.0 5 ------- null}
h -t 0.97014 -s 1 -d 5 -p tcp -e 1040 -c 0 -i 15 -a 0 -x {1.0 2.0 -1 ------- null}
r -t 0.974028 -s 5 -d 4 -p tcp -e 1040 -c 1 -i 10 -a 1 -x {3.0 4.0 3 ------- null}
- -t 0.988744 -s 3 -d 5 -p tcp -e 1040 -c 1 -i 12 -a 1 -x {3.0 4.0 5 ------- null}
h -t 0.988744 -s 3 -d 5 -p tcp -e 1040 -c 1 -i 12 -a 1 -x {3.0 4.0 -1 ------- null}
r -t 0.991608 -s 5 -d 2 -p tcp -e 1040 -c 0 -i 13 -a 0 -x {1.0 2.0 3 ------- null}
r -t 1.009952 -s 5 -d 2 -p tcp -e 1040 -c 0 -i 14 -a 0 -x {1.0 2.0 4 ------- null}
h -t 1.009952 -s 2 -d 5 -p ack -e 40 -c 0 -i 16 -a 0 -x {2.0 1.0 4 ------- null}
r -t 1.028556 -s 5 -d 4 -p tcp -e 1040 -c 1 -i 11 -a 1 -x {3.0 4.0 4 ------- null}
h -t 1.028556 -s 4 -d 5 -p ack -e 40 -c 1 -i 17 -a 1 -x {4.0 3.0 4 ------- null}
r -t 1.045876 -s 5 -d 4 -p tcp -e 1040 -c 1 -i 12 -a 1 -x {3.0 4.0 5 ------- null}
+ -t 1.049952 -s 2 -d 5 -p ack -e 40 -c 0 -i 16 -a 0 -x {2.0 1.0 4 ------- null}
- -t 1.049952 -s 2 -d 5 -p ack -e 40 -c 0 -i 16 -a 0 -x {2.0 1.0 4 ------- null}
h -t 1.049952 -s 2 -d 5 -p ack -e 40 -c 0 -i 16 -a 0 -x {2.0 1.0 -1 ------- null}
r -t 1.062936 -s 5 -d 2 -p tcp -e 1040 -c 0 -i 15 -a 0 -x {1.0 2.0 5 ------- null}
+ -t 1.068556 -s 4 -d 5 -p ack -e 40 -c 1 -i 17 -a 1 -x {4.0 3.0 4 ------- null}
- -t 1.068556 -s 4 -d 5 -p ack -e 40 -c 1 -i 17 -a 1 -x {4.0 3.0 4 ------- null}
h -t 1.068556 -s 4 -d 5 -p ack -e 40 -c 1 -i 17 -a 1 -x {4.0 3.0 -1 ------- null}
r -t 1.09098 -s 5 -d 1 -p ack -e 40 -c 0 -i 16 -a 0 -x {2.0 1.0 4 ------- null}
h -t 1.09098 -s 1 -d 5 -p tcp -e 1040 -c 0 -i 18 -a 0 -x {1.0 2.0 6 ------- null}
h -t 1.09098 -s 1 -d 5 -p tcp -e 1040 -c 0 -i 19 -a 0 -x {1.0 2.0 7 ------- null}
h -t 1.09098 -s 1 -d 5 -p tcp -e 1040 -c 0 -i 20 -a 0 -x {1.0 2.0 8 ------- null}
r -t 1.109584 -s 5 -d 3 -p ack -e 40 -c 1 -i 17 -a 1 -x {4.0 3.0 4 ------- null}
h -t 1.109584 -s 3 -d 5 -p tcp -e 1040 -c 1 -i 21 -a 1 -x {3.0 4.0 6 ------- null}
h -t 1.109584 -s 3 -d 5 -p tcp -e 1040 -c 1 -i 22 -a 1 -x {3.0 4.0 7 ------- null}
h -t 1.109584 -s 3 -d 5 -p tcp -e 1040 -c 1 -i 23 -a 1 -x {3.0 4.0 8 ------- null}
+ -t 1.13098 -s 1 -d 5 -p tcp -e 1040 -c 0 -i 18 -a 0 -x {1.0 2.0 6 ------- null}
- -t 1.13098 -s 1 -d 5 -p tcp -e 1040 -c 0 -i 18 -a 0 -x {1.0 2.0 6 ------- null}
h -t 1.13098 -s 1 -d 5 -p tcp -e 1040 -c 0 -i 18 -a 0 -x {1.0 2.0 -1 ------- null}
+ -t 1.13098 -s 1 -d 5 -p tcp -e 1040 -c 0 -i 19 -a 0 -x {1.0 2.0 7 ------- null}
+ -t 1.13098 -s 1 -d 5 -p tcp -e 1040 -c 0 -i 20 -a 0 -x {1.0 2.0 8 ------- null}
h -t 1.145876 -s 4 -d 5 -p ack -e 40 -c 1 -i 24 -a 1 -x {4.0 3.0 5 ------- null}
- -t 1.148036 -s 1 -d 5 -p tcp -e 1040 -c 0 -i 19 -a 0 -x {1.0 2.0 7 ------- null}
h -t 1.148036 -s 1 -d 5 -p tcp -e 1040 -c 0 -i 19 -a 0 -x {1.0 2.0 -1 ------- null}
+ -t 1.149584 -s 3 -d 5 -p tcp -e 1040 -c 1 -i 21 -a 1 -x {3.0 4.0 6 ------- null}
- -t 1.149584 -s 3 -d 5 -p tcp -e 1040 -c 1 -i 21 -a 1 -x {3.0 4.0 6 ------- null}
h -t 1.149584 -s 3 -d 5 -p tcp -e 1040 -c 1 -i 21 -a 1 -x {3.0 4.0 -1 ------- null}
+ -t 1.149584 -s 3 -d 5 -p tcp -e 1040 -c 1 -i 22 -a 1 -x {3.0 4.0 7 ------- null}
+ -t 1.149584 -s 3 -d 5 -p tcp -e 1040 -c 1 -i 23 -a 1 -x {3.0 4.0 8 ------- null}
h -t 1.162936 -s 2 -d 5 -p ack -e 40 -c 0 -i 25 -a 0 -x {2.0 1.0 5 ------- null}
- -t 1.165092 -s 1 -d 5 -p tcp -e 1040 -c 0 -i 20 -a 0 -x {1.0 2.0 8 ------- null}
h -t 1.165092 -s 1 -d 5 -p tcp -e 1040 -c 0 -i 20 -a 0 -x {1.0 2.0 -1 ------- null}
+ -t 1.185876 -s 4 -d 5 -p ack -e 40 -c 1 -i 24 -a 1 -x {4.0 3.0 5 ------- null}
- -t 1.185876 -s 4 -d 5 -p ack -e 40 -c 1 -i 24 -a 1 -x {4.0 3.0 5 ------- null}
h -t 1.185876 -s 4 -d 5 -p ack -e 40 -c 1 -i 24 -a 1 -x {4.0 3.0 -1 ------- null}
- -t 1.187024 -s 3 -d 5 -p tcp -e 1040 -c 1 -i 22 -a 1 -x {3.0 4.0 7 ------- null}
h -t 1.187024 -s 3 -d 5 -p tcp -e 1040 -c 1 -i 22 -a 1 -x {3.0 4.0 -1 ------- null}
r -t 1.187848 -s 5 -d 2 -p tcp -e 1040 -c 0 -i 18 -a 0 -x {1.0 2.0 6 ------- null}
+ -t 1.202936 -s 2 -d 5 -p ack -e 40 -c 0 -i 25 -a 0 -x {2.0 1.0 5 ------- null}
- -t 1.202936 -s 2 -d 5 -p ack -e 40 -c 0 -i 25 -a 0 -x {2.0 1.0 5 ------- null}
h -t 1.202936 -s 2 -d 5 -p ack -e 40 -c 0 -i 25 -a 0 -x {2.0 1.0 -1 ------- null}
r -t 1.204904 -s 5 -d 2 -p tcp -e 1040 -c 0 -i 19 -a 0 -x {1.0 2.0 7 ------- null}
h -t 1.204904 -s 2 -d 5 -p ack -e 40 -c 0 -i 26 -a 0 -x {2.0 1.0 7 ------- null}
- -t 1.2112 -s 3 -d 5 -p tcp -e 1040 -c 1 -i 23 -a 1 -x {3.0 4.0 8 ------- null}
h -t 1.2112 -s 3 -d 5 -p tcp -e 1040 -c 1 -i 23 -a 1 -x {3.0 4.0 -1 ------- null}
r -t 1.226836 -s 5 -d 4 -p tcp -e 1040 -c 1 -i 21 -a 1 -x {3.0 4.0 6 ------- null}
r -t 1.233952 -s 5 -d 3 -p ack -e 40 -c 1 -i 24 -a 1 -x {4.0 3.0 5 ------- null}
h -t 1.233952 -s 3 -d 5 -p tcp -e 1040 -c 1 -i 27 -a 1 -x {3.0 4.0 9 ------- null}
h -t 1.233952 -s 3 -d 5 -p tcp -e 1040 -c 1 -i 28 -a 1 -x {3.0 4.0 10 ------- null}
+ -t 1.244904 -s 2 -d 5 -p ack -e 40 -c 0 -i 26 -a 0 -x {2.0 1.0 7 ------- null}
- -t 1.244904 -s 2 -d 5 -p ack -e 40 -c 0 -i 26 -a 0 -x {2.0 1.0 7 ------- null}
h -t 1.244904 -s 2 -d 5 -p ack -e 40 -c 0 -i 26 -a 0 -x {2.0 1.0 -1 ------- null}
r -t 1.251012 -s 5 -d 4 -p tcp -e 1040 -c 1 -i 22 -a 1 -x {3.0 4.0 7 ------- null}
h -t 1.251012 -s 4 -d 5 -p ack -e 40 -c 1 -i 29 -a 1 -x {4.0 3.0 7 ------- null}
r -t 1.270636 -s 5 -d 4 -p tcp -e 1040 -c 1 -i 23 -a 1 -x {3.0 4.0 8 ------- null}
+ -t 1.273952 -s 3 -d 5 -p tcp -e 1040 -c 1 -i 27 -a 1 -x {3.0 4.0 9 ------- null}
- -t 1.273952 -s 3 -d 5 -p tcp -e 1040 -c 1 -i 27 -a 1 -x {3.0 4.0 9 ------- null}
h -t 1.273952 -s 3 -d 5 -p tcp -e 1040 -c 1 -i 27 -a 1 -x {3.0 4.0 -1 ------- null}
+ -t 1.273952 -s 3 -d 5 -p tcp -e 1040 -c 1 -i 28 -a 1 -x {3.0 4.0 10 ------- null}
r -t 1.279284 -s 5 -d 1 -p ack -e 40 -c 0 -i 25 -a 0 -x {2.0 1.0 5 ------- null}
h -t 1.279284 -s 1 -d 5 -p tcp -e 1040 -c 0 -i 30 -a 0 -x {1.0 2.0 9 ------- null}
h -t 1.279284 -s 1 -d 5 -p tcp -e 1040 -c 0 -i 31 -a 0 -x {1.0 2.0 10 ------- null}
- -t 1.291008 -s 3 -d 5 -p tcp -e 1040 -c 1 -i 28 -a 1 -x {3.0 4.0 10 ------- null}
h -t 1.291008 -s 3 -d 5 -p tcp -e 1040 -c 1 -i 28 -a 1 -x {3.0 4.0 -1 ------- null}
+ -t 1.291012 -s 4 -d 5 -p ack -e 40 -c 1 -i 29 -a 1 -x {4.0 3.0 7 ------- null}
- -t 1.291012 -s 4 -d 5 -p ack -e 40 -c 1 -i 29 -a 1 -x {4.0 3.0 7 ------- null}
h -t 1.291012 -s 4 -d 5 -p ack -e 40 -c 1 -i 29 -a 1 -x {4.0 3.0 -1 ------- null}
r -t 1.298196 -s 5 -d 2 -p tcp -e 1040 -c 0 -i 20 -a 0 -x {1.0 2.0 8 ------- null}
r -t 1.299416 -s 5 -d 1 -p ack -e 40 -c 0 -i 26 -a 0 -x {2.0 1.0 7 ------- null}
h -t 1.299416 -s 1 -d 5 -p tcp -e 1040 -c 0 -i 32 -a 0 -x {1.0 2.0 11 ------- null}
h -t 1.299416 -s 1 -d 5 -p tcp -e 1040 -c 0 -i 33 -a 0 -x {1.0 2.0 12 ------- null}
h -t 1.299416 -s 1 -d 5 -p tcp -e 1040 -c 0 -i 34 -a 0 -x {1.0 2.0 13 ------- null}
+ -t 1.319284 -s 1 -d 5 -p tcp -e 1040 -c 0 -i 30 -a 0 -x {1.0 2.0 9 ------- null}
- -t 1.319284 -s 1 -d 5 -p tcp -e 1040 -c 0 -i 30 -a 0 -x {1.0 2.0 9 ------- null}
h -t 1.319284 -s 1 -d 5 -p tcp -e 1040 -c 0 -i 30 -a 0 -x {1.0 2.0 -1 ------- null}
+ -t 1.319284 -s 1 -d 5 -p tcp -e 1040 -c 0 -i 31 -a 0 -x {1.0 2.0 10 ------- null}
r -t 1.33082 -s 5 -d 4 -p tcp -e 1040 -c 1 -i 27 -a 1 -x {3.0 4.0 9 ------- null}
h -t 1.33082 -s 4 -d 5 -p ack -e 40 -c 1 -i 35 -a 1 -x {4.0 3.0 9 ------- null}
- -t 1.33634 -s 1 -d 5 -p tcp -e 1040 -c 0 -i 31 -a 0 -x {1.0 2.0 10 ------- null}
h -t 1.33634 -s 1 -d 5 -p tcp -e 1040 -c 0 -i 31 -a 0 -x {1.0 2.0 -1 ------- null}
+ -t 1.339416 -s 1 -d 5 -p tcp -e 1040 -c 0 -i 32 -a 0 -x {1.0 2.0 11 ------- null}
+ -t 1.339416 -s 1 -d 5 -p tcp -e 1040 -c 0 -i 33 -a 0 -x {1.0 2.0 12 ------- null}
+ -t 1.339416 -s 1 -d 5 -p tcp -e 1040 -c 0 -i 34 -a 0 -x {1.0 2.0 13 ------- null}
- -t 1.353396 -s 1 -d 5 -p tcp -e 1040 -c 0 -i 32 -a 0 -x {1.0 2.0 11 ------- null}
h -t 1.353396 -s 1 -d 5 -p tcp -e 1040 -c 0 -i 32 -a 0 -x {1.0 2.0 -1 ------- null}
r -t 1.35378 -s 5 -d 4 -p tcp -e 1040 -c 1 -i 28 -a 1 -x {3.0 4.0 10 ------- null}
r -t 1.355 -s 5 -d 3 -p ack -e 40 -c 1 -i 29 -a 1 -x {4.0 3.0 7 ------- null}
h -t 1.355 -s 3 -d 5 -p tcp -e 1040 -c 1 -i 36 -a 1 -x {3.0 4.0 11 ------- null}
h -t 1.355 -s 3 -d 5 -p tcp -e 1040 -c 1 -i 37 -a 1 -x {3.0 4.0 12 ------- null}
h -t 1.355 -s 3 -d 5 -p tcp -e 1040 -c 1 -i 38 -a 1 -x {3.0 4.0 13 ------- null}
- -t 1.370452 -s 1 -d 5 -p tcp -e 1040 -c 0 -i 33 -a 0 -x {1.0 2.0 12 ------- null}
h -t 1.370452 -s 1 -d 5 -p tcp -e 1040 -c 0 -i 33 -a 0 -x {1.0 2.0 -1 ------- null}
+ -t 1.37082 -s 4 -d 5 -p ack -e 40 -c 1 -i 35 -a 1 -x {4.0 3.0 9 ------- null}
- -t 1.37082 -s 4 -d 5 -p ack -e 40 -c 1 -i 35 -a 1 -x {4.0 3.0 9 ------- null}
h -t 1.37082 -s 4 -d 5 -p ack -e 40 -c 1 -i 35 -a 1 -x {4.0 3.0 -1 ------- null}
r -t 1.376152 -s 5 -d 2 -p tcp -e 1040 -c 0 -i 30 -a 0 -x {1.0 2.0 9 ------- null}
h -t 1.376152 -s 2 -d 5 -p ack -e 40 -c 0 -i 39 -a 0 -x {2.0 1.0 9 ------- null}
- -t 1.387508 -s 1 -d 5 -p tcp -e 1040 -c 0 -i 34 -a 0 -x {1.0 2.0 13 ------- null}
h -t 1.387508 -s 1 -d 5 -p tcp -e 1040 -c 0 -i 34 -a 0 -x {1.0 2.0 -1 ------- null}
r -t 1.393208 -s 5 -d 2 -p tcp -e 1040 -c 0 -i 31 -a 0 -x {1.0 2.0 10 ------- null}
+ -t 1.395 -s 3 -d 5 -p tcp -e 1040 -c 1 -i 36 -a 1 -x {3.0 4.0 11 ------- null}
- -t 1.395 -s 3 -d 5 -p tcp -e 1040 -c 1 -i 36 -a 1 -x {3.0 4.0 11 ------- null}
h -t 1.395 -s 3 -d 5 -p tcp -e 1040 -c 1 -i 36 -a 1 -x {3.0 4.0 -1 ------- null}
+ -t 1.395 -s 3 -d 5 -p tcp -e 1040 -c 1 -i 37 -a 1 -x {3.0 4.0 12 ------- null}
+ -t 1.395 -s 3 -d 5 -p tcp -e 1040 -c 1 -i 38 -a 1 -x {3.0 4.0 13 ------- null}
r -t 1.410264 -s 5 -d 2 -p tcp -e 1040 -c 0 -i 32 -a 0 -x {1.0 2.0 11 ------- null}
h -t 1.410264 -s 2 -d 5 -p ack -e 40 -c 0 -i 40 -a 0 -x {2.0 1.0 11 ------- null}
+ -t 1.416152 -s 2 -d 5 -p ack -e 40 -c 0 -i 39 -a 0 -x {2.0 1.0 9 ------- null}
- -t 1.416152 -s 2 -d 5 -p ack -e 40 -c 0 -i 39 -a 0 -x {2.0 1.0 9 ------- null}
h -t 1.416152 -s 2 -d 5 -p ack -e 40 -c 0 -i 39 -a 0 -x {2.0 1.0 -1 ------- null}
- -t 1.42644 -s 3 -d 5 -p tcp -e 1040 -c 1 -i 37 -a 1 -x {3.0 4.0 12 ------- null}
h -t 1.42644 -s 3 -d 5 -p tcp -e 1040 -c 1 -i 37 -a 1 -x {3.0 4.0 -1 ------- null}
r -t 1.42732 -s 5 -d 2 -p tcp -e 1040 -c 0 -i 33 -a 0 -x {1.0 2.0 12 ------- null}
r -t 1.432132 -s 5 -d 3 -p ack -e 40 -c 1 -i 35 -a 1 -x {4.0 3.0 9 ------- null}
h -t 1.432132 -s 3 -d 5 -p tcp -e 1040 -c 1 -i 41 -a 1 -x {3.0 4.0 14 ------- null}
h -t 1.432132 -s 3 -d 5 -p tcp -e 1040 -c 1 -i 42 -a 1 -x {3.0 4.0 15 ------- null}
h -t 1.432132 -s 3 -d 5 -p tcp -e 1040 -c 1 -i 43 -a 1 -x {3.0 4.0 16 ------- null}
- -t 1.444976 -s 3 -d 5 -p tcp -e 1040 -c 1 -i 38 -a 1 -x {3.0 4.0 13 ------- null}
h -t 1.444976 -s 3 -d 5 -p tcp -e 1040 -c 1 -i 38 -a 1 -x {3.0 4.0 -1 ------- null}
r -t 1.449192 -s 5 -d 2 -p tcp -e 1040 -c 0 -i 34 -a 0 -x {1.0 2.0 13 ------- null}
h -t 1.449192 -s 2 -d 5 -p ack -e 40 -c 0 -i 44 -a 0 -x {2.0 1.0 13 ------- null}
+ -t 1.450264 -s 2 -d 5 -p ack -e 40 -c 0 -i 40 -a 0 -x {2.0 1.0 11 ------- null}
- -t 1.450264 -s 2 -d 5 -p ack -e 40 -c 0 -i 40 -a 0 -x {2.0 1.0 11 ------- null}
h -t 1.450264 -s 2 -d 5 -p ack -e 40 -c 0 -i 40 -a 0 -x {2.0 1.0 -1 ------- null}
h -t 1.45378 -s 4 -d 5 -p ack -e 40 -c 1 -i 45 -a 1 -x {4.0 3.0 10 ------- null}
r -t 1.466252 -s 5 -d 4 -p tcp -e 1040 -c 1 -i 36 -a 1 -x {3.0 4.0 11 ------- null}
r -t 1.467728 -s 5 -d 1 -p ack -e 40 -c 0 -i 39 -a 0 -x {2.0 1.0 9 ------- null}
h -t 1.467728 -s 1 -d 5 -p tcp -e 1040 -c 0 -i 46 -a 0 -x {1.0 2.0 14 ------- null}
h -t 1.467728 -s 1 -d 5 -p tcp -e 1040 -c 0 -i 47 -a 0 -x {1.0 2.0 15 ------- null}
h -t 1.467728 -s 1 -d 5 -p tcp -e 1040 -c 0 -i 48 -a 0 -x {1.0 2.0 16 ------- null}
+ -t 1.472132 -s 3 -d 5 -p tcp -e 1040 -c 1 -i 41 -a 1 -x {3.0 4.0 14 ------- null}
- -t 1.472132 -s 3 -d 5 -p tcp -e 1040 -c 1 -i 41 -a 1 -x {3.0 4.0 14 ------- null}
h -t 1.472132 -s 3 -d 5 -p tcp -e 1040 -c 1 -i 41 -a 1 -x {3.0 4.0 -1 ------- null}
+ -t 1.472132 -s 3 -d 5 -p tcp -e 1040 -c 1 -i 42 -a 1 -x {3.0 4.0 15 ------- null}
+ -t 1.472132 -s 3 -d 5 -p tcp -e 1040 -c 1 -i 43 -a 1 -x {3.0 4.0 16 ------- null}
r -t 1.484788 -s 5 -d 4 -p tcp -e 1040 -c 1 -i 37 -a 1 -x {3.0 4.0 12 ------- null}
h -t 1.484788 -s 4 -d 5 -p ack -e 40 -c 1 -i 49 -a 1 -x {4.0 3.0 12 ------- null}
- -t 1.489188 -s 3 -d 5 -p tcp -e 1040 -c 1 -i 42 -a 1 -x {3.0 4.0 15 ------- null}
h -t 1.489188 -s 3 -d 5 -p tcp -e 1040 -c 1 -i 42 -a 1 -x {3.0 4.0 -1 ------- null}
+ -t 1.489192 -s 2 -d 5 -p ack -e 40 -c 0 -i 44 -a 0 -x {2.0 1.0 13 ------- null}
- -t 1.489192 -s 2 -d 5 -p ack -e 40 -c 0 -i 44 -a 0 -x {2.0 1.0 13 ------- null}
h -t 1.489192 -s 2 -d 5 -p ack -e 40 -c 0 -i 44 -a 0 -x {2.0 1.0 -1 ------- null}
+ -t 1.49378 -s 4 -d 5 -p ack -e 40 -c 1 -i 45 -a 1 -x {4.0 3.0 10 ------- null}
- -t 1.49378 -s 4 -d 5 -p ack -e 40 -c 1 -i 45 -a 1 -x {4.0 3.0 10 ------- null}
h -t 1.49378 -s 4 -d 5 -p ack -e 40 -c 1 -i 45 -a 1 -x {4.0 3.0 -1 ------- null}
r -t 1.501844 -s 5 -d 4 -p tcp -e 1040 -c 1 -i 38 -a 1 -x {3.0 4.0 13 ------- null}
r -t 1.503064 -s 5 -d 1 -p ack -e 40 -c 0 -i 40 -a 0 -x {2.0 1.0 11 ------- null}
h -t 1.503064 -s 1 -d 5 -p tcp -e 1040 -c 0 -i 50 -a 0 -x {1.0 2.0 17 ------- null}
h -t 1.503064 -s 1 -d 5 -p tcp -e 1040 -c 0 -i 51 -a 0 -x {1.0 2.0 18 ------- null}
h -t 1.503064 -s 1 -d 5 -p tcp -e 1040 -c 0 -i 52 -a 0 -x {1.0 2.0 19 ------- null}
+ -t 1.507728 -s 1 -d 5 -p tcp -e 1040 -c 0 -i 46 -a 0 -x {1.0 2.0 14 ------- null}
- -t 1.507728 -s 1 -d 5 -p tcp -e 1040 -c 0 -i 46 -a 0 -x {1.0 2.0 14 ------- null}
h -t 1.507728 -s 1 -d 5 -p tcp -e 1040 -c 0 -i 46 -a 0 -x {1.0 2.0 -1 ------- null}
+ -t 1.507728 -s 1 -d 5 -p tcp -e 1040 -c 0 -i 47 -a 0 -x {1.0 2.0 15 ------- null}
+ -t 1.507728 -s 1 -d 5 -p tcp -e 1040 -c 0 -i 48 -a 0 -x {1.0 2.0 16 ------- null}
- -t 1.507788 -s 3 -d 5 -p tcp -e 1040 -c 1 -i 43 -a 1 -x {3.0 4.0 16 ------- null}
h -t 1.507788 -s 3 -d 5 -p tcp -e 1040 -c 1 -i 43 -a 1 -x {3.0 4.0 -1 ------- null}
+ -t 1.524788 -s 4 -d 5 -p ack -e 40 -c 1 -i 49 -a 1 -x {4.0 3.0 12 ------- null}
- -t 1.526388 -s 1 -d 5 -p tcp -e 1040 -c 0 -i 47 -a 0 -x {1.0 2.0 15 ------- null}
h -t 1.526388 -s 1 -d 5 -p tcp -e 1040 -c 0 -i 47 -a 0 -x {1.0 2.0 -1 ------- null}
r -t 1.529 -s 5 -d 4 -p tcp -e 1040 -c 1 -i 41 -a 1 -x {3.0 4.0 14 ------- null}
h -t 1.529 -s 4 -d 5 -p ack -e 40 -c 1 -i 53 -a 1 -x {4.0 3.0 14 ------- null}
+ -t 1.543064 -s 1 -d 5 -p tcp -e 1040 -c 0 -i 50 -a 0 -x {1.0 2.0 17 ------- null}
+ -t 1.543064 -s 1 -d 5 -p tcp -e 1040 -c 0 -i 51 -a 0 -x {1.0 2.0 18 ------- null}
+ -t 1.543064 -s 1 -d 5 -p tcp -e 1040 -c 0 -i 52 -a 0 -x {1.0 2.0 19 ------- null}
- -t 1.543708 -s 1 -d 5 -p tcp -e 1040 -c 0 -i 48 -a 0 -x {1.0 2.0 16 ------- null}
h -t 1.543708 -s 1 -d 5 -p tcp -e 1040 -c 0 -i 48 -a 0 -x {1.0 2.0 -1 ------- null}
r -t 1.5476 -s 5 -d 4 -p tcp -e 1040 -c 1 -i 42 -a 1 -x {3.0 4.0 15 ------- null}
- -t 1.561028 -s 1 -d 5 -p tcp -e 1040 -c 0 -i 50 -a 0 -x {1.0 2.0 17 ------- null}
h -t 1.561028 -s 1 -d 5 -p tcp -e 1040 -c 0 -i 50 -a 0 -x {1.0 2.0 -1 ------- null}
r -t 1.5662 -s 5 -d 2 -p tcp -e 1040 -c 0 -i 46 -a 0 -x {1.0 2.0 14 ------- null}
+ -t 1.569 -s 4 -d 5 -p ack -e 40 -c 1 -i 53 -a 1 -x {4.0 3.0 14 ------- null}
- -t 1.579372 -s 1 -d 5 -p tcp -e 1040 -c 0 -i 51 -a 0 -x {1.0 2.0 18 ------- null}
h -t 1.579372 -s 1 -d 5 -p tcp -e 1040 -c 0 -i 51 -a 0 -x {1.0 2.0 -1 ------- null}
r -t 1.58352 -s 5 -d 2 -p tcp -e 1040 -c 0 -i 47 -a 0 -x {1.0 2.0 15 ------- null}
h -t 1.58352 -s 2 -d 5 -p ack -e 40 -c 0 -i 54 -a 0 -x {2.0 1.0 15 ------- null}
- -t 1.584008 -s 4 -d 5 -p ack -e 40 -c 1 -i 49 -a 1 -x {4.0 3.0 12 ------- null}
h -t 1.584008 -s 4 -d 5 -p ack -e 40 -c 1 -i 49 -a 1 -x {4.0 3.0 -1 ------- null}
- -t 1.586512 -s 4 -d 5 -p ack -e 40 -c 1 -i 53 -a 1 -x {4.0 3.0 14 ------- null}
h -t 1.586512 -s 4 -d 5 -p ack -e 40 -c 1 -i 53 -a 1 -x {4.0 3.0 -1 ------- null}
r -t 1.60084 -s 5 -d 2 -p tcp -e 1040 -c 0 -i 48 -a 0 -x {1.0 2.0 16 ------- null}
- -t 1.60542 -s 1 -d 5 -p tcp -e 1040 -c 0 -i 52 -a 0 -x {1.0 2.0 19 ------- null}
h -t 1.60542 -s 1 -d 5 -p tcp -e 1040 -c 0 -i 52 -a 0 -x {1.0 2.0 -1 ------- null}
r -t 1.619184 -s 5 -d 2 -p tcp -e 1040 -c 0 -i 50 -a 0 -x {1.0 2.0 17 ------- null}
h -t 1.619184 -s 2 -d 5 -p ack -e 40 -c 0 -i 55 -a 0 -x {2.0 1.0 17 ------- null}
+ -t 1.62352 -s 2 -d 5 -p ack -e 40 -c 0 -i 54 -a 0 -x {2.0 1.0 15 ------- null}
r -t 1.62382 -s 5 -d 3 -p ack -e 40 -c 1 -i 45 -a 1 -x {4.0 3.0 10 ------- null}
h -t 1.62382 -s 3 -d 5 -p tcp -e 1040 -c 1 -i 56 -a 1 -x {3.0 4.0 17 ------- null}
h -t 1.62382 -s 3 -d 5 -p tcp -e 1040 -c 1 -i 57 -a 1 -x {3.0 4.0 18 ------- null}
r -t 1.626324 -s 5 -d 3 -p ack -e 40 -c 1 -i 49 -a 1 -x {4.0 3.0 12 ------- null}
h -t 1.626324 -s 3 -d 5 -p tcp -e 1040 -c 1 -i 58 -a 1 -x {3.0 4.0 19 ------- null}
h -t 1.626324 -s 3 -d 5 -p tcp -e 1040 -c 1 -i 59 -a 1 -x {3.0 4.0 20 ------- null}
h -t 1.626324 -s 3 -d 5 -p tcp -e 1040 -c 1 -i 60 -a 1 -x {3.0 4.0 21 ------- null}
r -t 1.62754 -s 5 -d 3 -p ack -e 40 -c 1 -i 53 -a 1 -x {4.0 3.0 14 ------- null}
h -t 1.62754 -s 3 -d 5 -p tcp -e 1040 -c 1 -i 61 -a 1 -x {3.0 4.0 22 ------- null}
h -t 1.62754 -s 3 -d 5 -p tcp -e 1040 -c 1 -i 62 -a 1 -x {3.0 4.0 23 ------- null}
h -t 1.62754 -s 3 -d 5 -p tcp -e 1040 -c 1 -i 63 -a 1 -x {3.0 4.0 24 ------- null}
- -t 1.643576 -s 2 -d 5 -p ack -e 40 -c 0 -i 54 -a 0 -x {2.0 1.0 15 ------- null}
h -t 1.643576 -s 2 -d 5 -p ack -e 40 -c 0 -i 54 -a 0 -x {2.0 1.0 -1 ------- null}
r -t 1.645232 -s 5 -d 2 -p tcp -e 1040 -c 0 -i 51 -a 0 -x {1.0 2.0 18 ------- null}
h -t 1.6476 -s 4 -d 5 -p ack -e 40 -c 1 -i 64 -a 1 -x {4.0 3.0 15 ------- null}
+ -t 1.659184 -s 2 -d 5 -p ack -e 40 -c 0 -i 55 -a 0 -x {2.0 1.0 17 ------- null}
- -t 1.659184 -s 2 -d 5 -p ack -e 40 -c 0 -i 55 -a 0 -x {2.0 1.0 17 ------- null}
h -t 1.659184 -s 2 -d 5 -p ack -e 40 -c 0 -i 55 -a 0 -x {2.0 1.0 -1 ------- null}
r -t 1.663576 -s 5 -d 2 -p tcp -e 1040 -c 0 -i 52 -a 0 -x {1.0 2.0 19 ------- null}
h -t 1.663576 -s 2 -d 5 -p ack -e 40 -c 0 -i 65 -a 0 -x {2.0 1.0 19 ------- null}
+ -t 1.66382 -s 3 -d 5 -p tcp -e 1040 -c 1 -i 56 -a 1 -x {3.0 4.0 17 ------- null}
+ -t 1.66382 -s 3 -d 5 -p tcp -e 1040 -c 1 -i 57 -a 1 -x {3.0 4.0 18 ------- null}
+ -t 1.666324 -s 3 -d 5 -p tcp -e 1040 -c 1 -i 58 -a 1 -x {3.0 4.0 19 ------- null}
+ -t 1.666324 -s 3 -d 5 -p tcp -e 1040 -c 1 -i 59 -a 1 -x {3.0 4.0 20 ------- null}
+ -t 1.666324 -s 3 -d 5 -p tcp -e 1040 -c 1 -i 60 -a 1 -x {3.0 4.0 21 ------- null}
+ -t 1.66754 -s 3 -d 5 -p tcp -e 1040 -c 1 -i 61 -a 1 -x {3.0 4.0 22 ------- null}
+ -t 1.66754 -s 3 -d 5 -p tcp -e 1040 -c 1 -i 62 -a 1 -x {3.0 4.0 23 ------- null}
+ -t 1.66754 -s 3 -d 5 -p tcp -e 1040 -c 1 -i 63 -a 1 -x {3.0 4.0 24 ------- null}
r -t 1.683388 -s 5 -d 1 -p ack -e 40 -c 0 -i 44 -a 0 -x {2.0 1.0 13 ------- null}
h -t 1.683388 -s 1 -d 5 -p tcp -e 1040 -c 0 -i 66 -a 0 -x {1.0 2.0 20 ------- null}
h -t 1.683388 -s 1 -d 5 -p tcp -e 1040 -c 0 -i 67 -a 0 -x {1.0 2.0 21 ------- null}
h -t 1.683388 -s 1 -d 5 -p tcp -e 1040 -c 0 -i 68 -a 0 -x {1.0 2.0 22 ------- null}
r -t 1.684604 -s 5 -d 1 -p ack -e 40 -c 0 -i 54 -a 0 -x {2.0 1.0 15 ------- null}
h -t 1.684604 -s 1 -d 5 -p tcp -e 1040 -c 0 -i 69 -a 0 -x {1.0 2.0 23 ------- null}
h -t 1.684604 -s 1 -d 5 -p tcp -e 1040 -c 0 -i 70 -a 0 -x {1.0 2.0 24 ------- null}
h -t 1.684604 -s 1 -d 5 -p tcp -e 1040 -c 0 -i 71 -a 0 -x {1.0 2.0 25 ------- null}
+ -t 1.6876 -s 4 -d 5 -p ack -e 40 -c 1 -i 64 -a 1 -x {4.0 3.0 15 ------- null}
- -t 1.6876 -s 4 -d 5 -p ack -e 40 -c 1 -i 64 -a 1 -x {4.0 3.0 15 ------- null}
h -t 1.6876 -s 4 -d 5 -p ack -e 40 -c 1 -i 64 -a 1 -x {4.0 3.0 -1 ------- null}
- -t 1.69544 -s 3 -d 5 -p tcp -e 1040 -c 1 -i 56 -a 1 -x {3.0 4.0 17 ------- null}
h -t 1.69544 -s 3 -d 5 -p tcp -e 1040 -c 1 -i 56 -a 1 -x {3.0 4.0 -1 ------- null}
r -t 1.700212 -s 5 -d 1 -p ack -e 40 -c 0 -i 55 -a 0 -x {2.0 1.0 17 ------- null}
h -t 1.700212 -s 1 -d 5 -p tcp -e 1040 -c 0 -i 72 -a 0 -x {1.0 2.0 26 ------- null}
h -t 1.700212 -s 1 -d 5 -p tcp -e 1040 -c 0 -i 73 -a 0 -x {1.0 2.0 27 ------- null}
h -t 1.700212 -s 1 -d 5 -p tcp -e 1040 -c 0 -i 74 -a 0 -x {1.0 2.0 28 ------- null}
+ -t 1.703576 -s 2 -d 5 -p ack -e 40 -c 0 -i 65 -a 0 -x {2.0 1.0 19 ------- null}
- -t 1.703576 -s 2 -d 5 -p ack -e 40 -c 0 -i 65 -a 0 -x {2.0 1.0 19 ------- null}
h -t 1.703576 -s 2 -d 5 -p ack -e 40 -c 0 -i 65 -a 0 -x {2.0 1.0 -1 ------- null}
- -t 1.71276 -s 3 -d 5 -p tcp -e 1040 -c 1 -i 57 -a 1 -x {3.0 4.0 18 ------- null}
h -t 1.71276 -s 3 -d 5 -p tcp -e 1040 -c 1 -i 57 -a 1 -x {3.0 4.0 -1 ------- null}
+ -t 1.723388 -s 1 -d 5 -p tcp -e 1040 -c 0 -i 66 -a 0 -x {1.0 2.0 20 ------- null}
- -t 1.723388 -s 1 -d 5 -p tcp -e 1040 -c 0 -i 66 -a 0 -x {1.0 2.0 20 ------- null}
h -t 1.723388 -s 1 -d 5 -p tcp -e 1040 -c 0 -i 66 -a 0 -x {1.0 2.0 -1 ------- null}
+ -t 1.723388 -s 1 -d 5 -p tcp -e 1040 -c 0 -i 67 -a 0 -x {1.0 2.0 21 ------- null}
+ -t 1.723388 -s 1 -d 5 -p tcp -e 1040 -c 0 -i 68 -a 0 -x {1.0 2.0 22 ------- null}
+ -t 1.724604 -s 1 -d 5 -p tcp -e 1040 -c 0 -i 69 -a 0 -x {1.0 2.0 23 ------- null}
+ -t 1.724604 -s 1 -d 5 -p tcp -e 1040 -c 0 -i 70 -a 0 -x {1.0 2.0 24 ------- null}
+ -t 1.724604 -s 1 -d 5 -p tcp -e 1040 -c 0 -i 71 -a 0 -x {1.0 2.0 25 ------- null}
- -t 1.734564 -s 3 -d 5 -p tcp -e 1040 -c 1 -i 58 -a 1 -x {3.0 4.0 19 ------- null}
h -t 1.734564 -s 3 -d 5 -p tcp -e 1040 -c 1 -i 58 -a 1 -x {3.0 4.0 -1 ------- null}
r -t 1.735252 -s 5 -d 4 -p tcp -e 1040 -c 1 -i 43 -a 1 -x {3.0 4.0 16 ------- null}
+ -t 1.740212 -s 1 -d 5 -p tcp -e 1040 -c 0 -i 72 -a 0 -x {1.0 2.0 26 ------- null}
+ -t 1.740212 -s 1 -d 5 -p tcp -e 1040 -c 0 -i 73 -a 0 -x {1.0 2.0 27 ------- null}
+ -t 1.740212 -s 1 -d 5 -p tcp -e 1040 -c 0 -i 74 -a 0 -x {1.0 2.0 28 ------- null}
- -t 1.751884 -s 3 -d 5 -p tcp -e 1040 -c 1 -i 59 -a 1 -x {3.0 4.0 20 ------- null}
h -t 1.751884 -s 3 -d 5 -p tcp -e 1040 -c 1 -i 59 -a 1 -x {3.0 4.0 -1 ------- null}
r -t 1.752572 -s 5 -d 4 -p tcp -e 1040 -c 1 -i 56 -a 1 -x {3.0 4.0 17 ------- null}
h -t 1.752572 -s 4 -d 5 -p ack -e 40 -c 1 -i 75 -a 1 -x {4.0 3.0 17 ------- null}
r -t 1.756096 -s 5 -d 3 -p ack -e 40 -c 1 -i 64 -a 1 -x {4.0 3.0 15 ------- null}
h -t 1.756096 -s 3 -d 5 -p tcp -e 1040 -c 1 -i 76 -a 1 -x {3.0 4.0 25 ------- null}
h -t 1.756096 -s 3 -d 5 -p tcp -e 1040 -c 1 -i 77 -a 1 -x {3.0 4.0 26 ------- null}
r -t 1.757316 -s 5 -d 1 -p ack -e 40 -c 0 -i 65 -a 0 -x {2.0 1.0 19 ------- null}
h -t 1.757316 -s 1 -d 5 -p tcp -e 1040 -c 0 -i 78 -a 0 -x {1.0 2.0 29 ------- null}
h -t 1.757316 -s 1 -d 5 -p tcp -e 1040 -c 0 -i 79 -a 0 -x {1.0 2.0 30 ------- null}
h -t 1.757316 -s 1 -d 5 -p tcp -e 1040 -c 0 -i 80 -a 0 -x {1.0 2.0 31 ------- null}
- -t 1.76920399999999 -s 3 -d 5 -p tcp -e 1040 -c 1 -i 60 -a 1 -x {3.0 4.0 21 ------- null}
h -t 1.76920399999999 -s 3 -d 5 -p tcp -e 1040 -c 1 -i 60 -a 1 -x {3.0 4.0 -1 ------- null}
r -t 1.774376 -s 5 -d 4 -p tcp -e 1040 -c 1 -i 57 -a 1 -x {3.0 4.0 18 ------- null}
- -t 1.78652399999999 -s 3 -d 5 -p tcp -e 1040 -c 1 -i 61 -a 1 -x {3.0 4.0 22 ------- null}
h -t 1.78652399999999 -s 3 -d 5 -p tcp -e 1040 -c 1 -i 61 -a 1 -x {3.0 4.0 -1 ------- null}
r -t 1.791696 -s 5 -d 4 -p tcp -e 1040 -c 1 -i 58 -a 1 -x {3.0 4.0 19 ------- null}
h -t 1.791696 -s 4 -d 5 -p ack -e 40 -c 1 -i 81 -a 1 -x {4.0 3.0 19 ------- null}
+ -t 1.792572 -s 4 -d 5 -p ack -e 40 -c 1 -i 75 -a 1 -x {4.0 3.0 17 ------- null}
- -t 1.792572 -s 4 -d 5 -p ack -e 40 -c 1 -i 75 -a 1 -x {4.0 3.0 17 ------- null}
h -t 1.792572 -s 4 -d 5 -p ack -e 40 -c 1 -i 75 -a 1 -x {4.0 3.0 -1 ------- null}
+ -t 1.796096 -s 3 -d 5 -p tcp -e 1040 -c 1 -i 76 -a 1 -x {3.0 4.0 25 ------- null}
+ -t 1.796096 -s 3 -d 5 -p tcp -e 1040 -c 1 -i 77 -a 1 -x {3.0 4.0 26 ------- null}
+ -t 1.797316 -s 1 -d 5 -p tcp -e 1040 -c 0 -i 78 -a 0 -x {1.0 2.0 29 ------- null}
+ -t 1.797316 -s 1 -d 5 -p tcp -e 1040 -c 0 -i 79 -a 0 -x {1.0 2.0 30 ------- null}
+ -t 1.797316 -s 1 -d 5 -p tcp -e 1040 -c 0 -i 80 -a 0 -x {1.0 2.0 31 ------- null}