V -t * -v 1.0a5 -a 0
A -t * -n 1 -p 0 -o 0x7fffffff -c 30 -a 1
A -t * -h 1 -m 1073741823 -s 0
c -t * -i 4 -n yellow
c -t * -i 0 -n blue
c -t * -i 5 -n violet
c -t * -i 1 -n red
c -t * -i 2 -n cyan
c -t * -i 3 -n green
n -t * -a 4 -s 4 -S UP -v circle -c red -i red
n -t * -a 0 -s 0 -S UP -v box -c green -i green
n -t * -a 1 -s 1 -S UP -v circle -c red -i red
n -t * -a 2 -s 2 -S UP -v circle -c red -i red
n -t * -a 3 -s 3 -S UP -v circle -c red -i red
l -t * -s 0 -d 1 -S UP -r 1000000 -D 0.01 -c black
l -t * -s 0 -d 2 -S UP -r 1000000 -D 0.01 -c black
l -t * -s 0 -d 3 -S UP -r 1000000 -D 0.01 -c black
l -t * -s 0 -d 4 -S UP -r 1000000 -D 0.01 -c black
+ -t 0.5 -s 1 -d 0 -p tcp -e 40 -c 0 -i 0 -a 0 -x {1.0 2.0 0 ------- null}
- -t 0.5 -s 1 -d 0 -p tcp -e 40 -c 0 -i 0 -a 0 -x {1.0 2.0 0 ------- null}
h -t 0.5 -s 1 -d 0 -p tcp -e 40 -c 0 -i 0 -a 0 -x {1.0 2.0 -1 ------- null}
+ -t 0.5 -s 0 -d 2 -p tcp -e 40 -c 1 -i 1 -a 1 -x {0.0 2.1 0 ------- null}
- -t 0.5 -s 0 -d 2 -p tcp -e 40 -c 1 -i 1 -a 1 -x {0.0 2.1 0 ------- null}
h -t 0.5 -s 0 -d 2 -p tcp -e 40 -c 1 -i 1 -a 1 -x {0.0 2.1 -1 ------- null}
+ -t 0.5 -s 3 -d 0 -p tcp -e 40 -c 2 -i 2 -a 2 -x {3.0 1.1 0 ------- null}
- -t 0.5 -s 3 -d 0 -p tcp -e 40 -c 2 -i 2 -a 2 -x {3.0 1.1 0 ------- null}
h -t 0.5 -s 3 -d 0 -p tcp -e 40 -c 2 -i 2 -a 2 -x {3.0 1.1 -1 ------- null}
+ -t 0.5 -s 4 -d 0 -p tcp -e 40 -c 3 -i 3 -a 3 -x {4.0 0.1 0 ------- null}
- -t 0.5 -s 4 -d 0 -p tcp -e 40 -c 3 -i 3 -a 3 -x {4.0 0.1 0 ------- null}
h -t 0.5 -s 4 -d 0 -p tcp -e 40 -c 3 -i 3 -a 3 -x {4.0 0.1 -1 ------- null}
r -t 0.51032 -s 1 -d 0 -p tcp -e 40 -c 0 -i 0 -a 0 -x {1.0 2.0 0 ------- null}
+ -t 0.51032 -s 0 -d 2 -p tcp -e 40 -c 0 -i 0 -a 0 -x {1.0 2.0 0 ------- null}
- -t 0.51032 -s 0 -d 2 -p tcp -e 40 -c 0 -i 0 -a 0 -x {1.0 2.0 0 ------- null}
h -t 0.51032 -s 0 -d 2 -p tcp -e 40 -c 0 -i 0 -a 0 -x {1.0 2.0 -1 ------- null}
r -t 0.51032 -s 0 -d 2 -p tcp -e 40 -c 1 -i 1 -a 1 -x {0.0 2.1 0 ------- null}
+ -t 0.51032 -s 2 -d 0 -p ack -e 40 -c 1 -i 4 -a 1 -x {2.1 0.0 0 ------- null}
- -t 0.51032 -s 2 -d 0 -p ack -e 40 -c 1 -i 4 -a 1 -x {2.1 0.0 0 ------- null}
h -t 0.51032 -s 2 -d 0 -p ack -e 40 -c 1 -i 4 -a 1 -x {2.1 0.0 -1 ------- null}
r -t 0.51032 -s 3 -d 0 -p tcp -e 40 -c 2 -i 2 -a 2 -x {3.0 1.1 0 ------- null}
+ -t 0.51032 -s 0 -d 1 -p tcp -e 40 -c 2 -i 2 -a 2 -x {3.0 1.1 0 ------- null}
- -t 0.51032 -s 0 -d 1 -p tcp -e 40 -c 2 -i 2 -a 2 -x {3.0 1.1 0 ------- null}
h -t 0.51032 -s 0 -d 1 -p tcp -e 40 -c 2 -i 2 -a 2 -x {3.0 1.1 -1 ------- null}
r -t 0.51032 -s 4 -d 0 -p tcp -e 40 -c 3 -i 3 -a 3 -x {4.0 0.1 0 ------- null}
+ -t 0.51032 -s 0 -d 4 -p ack -e 40 -c 3 -i 5 -a 3 -x {0.1 4.0 0 ------- null}
- -t 0.51032 -s 0 -d 4 -p ack -e 40 -c 3 -i 5 -a 3 -x {0.1 4.0 0 ------- null}
h -t 0.51032 -s 0 -d 4 -p ack -e 40 -c 3 -i 5 -a 3 -x {0.1 4.0 -1 ------- null}
r -t 0.52064 -s 0 -d 2 -p tcp -e 40 -c 0 -i 0 -a 0 -x {1.0 2.0 0 ------- null}
+ -t 0.52064 -s 2 -d 0 -p ack -e 40 -c 0 -i 6 -a 0 -x {2.0 1.0 0 ------- null}
- -t 0.52064 -s 2 -d 0 -p ack -e 40 -c 0 -i 6 -a 0 -x {2.0 1.0 0 ------- null}
h -t 0.52064 -s 2 -d 0 -p ack -e 40 -c 0 -i 6 -a 0 -x {2.0 1.0 -1 ------- null}
r -t 0.52064 -s 2 -d 0 -p ack -e 40 -c 1 -i 4 -a 1 -x {2.1 0.0 0 ------- null}
+ -t 0.52064 -s 0 -d 2 -p tcp -e 1040 -c 1 -i 7 -a 1 -x {0.0 2.1 1 ------- null}
- -t 0.52064 -s 0 -d 2 -p tcp -e 1040 -c 1 -i 7 -a 1 -x {0.0 2.1 1 ------- null}
h -t 0.52064 -s 0 -d 2 -p tcp -e 1040 -c 1 -i 7 -a 1 -x {0.0 2.1 -1 ------- null}
+ -t 0.52064 -s 0 -d 2 -p tcp -e 1040 -c 1 -i 8 -a 1 -x {0.0 2.1 2 ------- null}
r -t 0.52064 -s 0 -d 1 -p tcp -e 40 -c 2 -i 2 -a 2 -x {3.0 1.1 0 ------- null}
+ -t 0.52064 -s 1 -d 0 -p ack -e 40 -c 2 -i 9 -a 2 -x {1.1 3.0 0 ------- null}
- -t 0.52064 -s 1 -d 0 -p ack -e 40 -c 2 -i 9 -a 2 -x {1.1 3.0 0 ------- null}
h -t 0.52064 -s 1 -d 0 -p ack -e 40 -c 2 -i 9 -a 2 -x {1.1 3.0 -1 ------- null}
r -t 0.52064 -s 0 -d 4 -p ack -e 40 -c 3 -i 5 -a 3 -x {0.1 4.0 0 ------- null}
+ -t 0.52064 -s 4 -d 0 -p tcp -e 1040 -c 3 -i 10 -a 3 -x {4.0 0.1 1 ------- null}
- -t 0.52064 -s 4 -d 0 -p tcp -e 1040 -c 3 -i 10 -a 3 -x {4.0 0.1 1 ------- null}
h -t 0.52064 -s 4 -d 0 -p tcp -e 1040 -c 3 -i 10 -a 3 -x {4.0 0.1 -1 ------- null}
+ -t 0.52064 -s 4 -d 0 -p tcp -e 1040 -c 3 -i 11 -a 3 -x {4.0 0.1 2 ------- null}
- -t 0.52896 -s 0 -d 2 -p tcp -e 1040 -c 1 -i 8 -a 1 -x {0.0 2.1 2 ------- null}
h -t 0.52896 -s 0 -d 2 -p tcp -e 1040 -c 1 -i 8 -a 1 -x {0.0 2.1 -1 ------- null}
- -t 0.52896 -s 4 -d 0 -p tcp -e 1040 -c 3 -i 11 -a 3 -x {4.0 0.1 2 ------- null}
h -t 0.52896 -s 4 -d 0 -p tcp -e 1040 -c 3 -i 11 -a 3 -x {4.0 0.1 -1 ------- null}
r -t 0.53096 -s 2 -d 0 -p ack -e 40 -c 0 -i 6 -a 0 -x {2.0 1.0 0 ------- null}
+ -t 0.53096 -s 0 -d 1 -p ack -e 40 -c 0 -i 6 -a 0 -x {2.0 1.0 0 ------- null}
- -t 0.53096 -s 0 -d 1 -p ack -e 40 -c 0 -i 6 -a 0 -x {2.0 1.0 0 ------- null}
h -t 0.53096 -s 0 -d 1 -p ack -e 40 -c 0 -i 6 -a 0 -x {2.0 1.0 -1 ------- null}
r -t 0.53096 -s 1 -d 0 -p ack -e 40 -c 2 -i 9 -a 2 -x {1.1 3.0 0 ------- null}
+ -t 0.53096 -s 0 -d 3 -p ack -e 40 -c 2 -i 9 -a 2 -x {1.1 3.0 0 ------- null}
- -t 0.53096 -s 0 -d 3 -p ack -e 40 -c 2 -i 9 -a 2 -x {1.1 3.0 0 ------- null}
h -t 0.53096 -s 0 -d 3 -p ack -e 40 -c 2 -i 9 -a 2 -x {1.1 3.0 -1 ------- null}
r -t 0.53896 -s 0 -d 2 -p tcp -e 1040 -c 1 -i 7 -a 1 -x {0.0 2.1 1 ------- null}
r -t 0.53896 -s 4 -d 0 -p tcp -e 1040 -c 3 -i 10 -a 3 -x {4.0 0.1 1 ------- null}
r -t 0.54128 -s 0 -d 1 -p ack -e 40 -c 0 -i 6 -a 0 -x {2.0 1.0 0 ------- null}
+ -t 0.54128 -s 1 -d 0 -p tcp -e 1040 -c 0 -i 12 -a 0 -x {1.0 2.0 1 ------- null}
- -t 0.54128 -s 1 -d 0 -p tcp -e 1040 -c 0 -i 12 -a 0 -x {1.0 2.0 1 ------- null}
h -t 0.54128 -s 1 -d 0 -p tcp -e 1040 -c 0 -i 12 -a 0 -x {1.0 2.0 -1 ------- null}
+ -t 0.54128 -s 1 -d 0 -p tcp -e 1040 -c 0 -i 13 -a 0 -x {1.0 2.0 2 ------- null}
r -t 0.54128 -s 0 -d 3 -p ack -e 40 -c 2 -i 9 -a 2 -x {1.1 3.0 0 ------- null}
+ -t 0.54128 -s 3 -d 0 -p tcp -e 1040 -c 2 -i 14 -a 2 -x {3.0 1.1 1 ------- null}
- -t 0.54128 -s 3 -d 0 -p tcp -e 1040 -c 2 -i 14 -a 2 -x {3.0 1.1 1 ------- null}
h -t 0.54128 -s 3 -d 0 -p tcp -e 1040 -c 2 -i 14 -a 2 -x {3.0 1.1 -1 ------- null}
+ -t 0.54128 -s 3 -d 0 -p tcp -e 1040 -c 2 -i 15 -a 2 -x {3.0 1.1 2 ------- null}
r -t 0.54728 -s 0 -d 2 -p tcp -e 1040 -c 1 -i 8 -a 1 -x {0.0 2.1 2 ------- null}
+ -t 0.54728 -s 2 -d 0 -p ack -e 40 -c 1 -i 16 -a 1 -x {2.1 0.0 2 ------- null}
- -t 0.54728 -s 2 -d 0 -p ack -e 40 -c 1 -i 16 -a 1 -x {2.1 0.0 2 ------- null}
h -t 0.54728 -s 2 -d 0 -p ack -e 40 -c 1 -i 16 -a 1 -x {2.1 0.0 -1 ------- null}
r -t 0.54728 -s 4 -d 0 -p tcp -e 1040 -c 3 -i 11 -a 3 -x {4.0 0.1 2 ------- null}
+ -t 0.54728 -s 0 -d 4 -p ack -e 40 -c 3 -i 17 -a 3 -x {0.1 4.0 2 ------- null}
- -t 0.54728 -s 0 -d 4 -p ack -e 40 -c 3 -i 17 -a 3 -x {0.1 4.0 2 ------- null}
h -t 0.54728 -s 0 -d 4 -p ack -e 40 -c 3 -i 17 -a 3 -x {0.1 4.0 -1 ------- null}
- -t 0.5496 -s 1 -d 0 -p tcp -e 1040 -c 0 -i 13 -a 0 -x {1.0 2.0 2 ------- null}
h -t 0.5496 -s 1 -d 0 -p tcp -e 1040 -c 0 -i 13 -a 0 -x {1.0 2.0 -1 ------- null}
- -t 0.5496 -s 3 -d 0 -p tcp -e 1040 -c 2 -i 15 -a 2 -x {3.0 1.1 2 ------- null}
h -t 0.5496 -s 3 -d 0 -p tcp -e 1040 -c 2 -i 15 -a 2 -x {3.0 1.1 -1 ------- null}
r -t 0.5576 -s 2 -d 0 -p ack -e 40 -c 1 -i 16 -a 1 -x {2.1 0.0 2 ------- null}
+ -t 0.5576 -s 0 -d 2 -p tcp -e 1040 -c 1 -i 18 -a 1 -x {0.0 2.1 3 ------- null}
- -t 0.5576 -s 0 -d 2 -p tcp -e 1040 -c 1 -i 18 -a 1 -x {0.0 2.1 3 ------- null}
h -t 0.5576 -s 0 -d 2 -p tcp -e 1040 -c 1 -i 18 -a 1 -x {0.0 2.1 -1 ------- null}
+ -t 0.5576 -s 0 -d 2 -p tcp -e 1040 -c 1 -i 19 -a 1 -x {0.0 2.1 4 ------- null}
+ -t 0.5576 -s 0 -d 2 -p tcp -e 1040 -c 1 -i 20 -a 1 -x {0.0 2.1 5 ------- null}
r -t 0.5576 -s 0 -d 4 -p ack -e 40 -c 3 -i 17 -a 3 -x {0.1 4.0 2 ------- null}
+ -t 0.5576 -s 4 -d 0 -p tcp -e 1040 -c 3 -i 21 -a 3 -x {4.0 0.1 3 ------- null}
- -t 0.5576 -s 4 -d 0 -p tcp -e 1040 -c 3 -i 21 -a 3 -x {4.0 0.1 3 ------- null}
h -t 0.5576 -s 4 -d 0 -p tcp -e 1040 -c 3 -i 21 -a 3 -x {4.0 0.1 -1 ------- null}
+ -t 0.5576 -s 4 -d 0 -p tcp -e 1040 -c 3 -i 22 -a 3 -x {4.0 0.1 4 ------- null}
+ -t 0.5576 -s 4 -d 0 -p tcp -e 1040 -c 3 -i 23 -a 3 -x {4.0 0.1 5 ------- null}
r -t 0.5596 -s 1 -d 0 -p tcp -e 1040 -c 0 -i 12 -a 0 -x {1.0 2.0 1 ------- null}
+ -t 0.5596 -s 0 -d 2 -p tcp -e 1040 -c 0 -i 12 -a 0 -x {1.0 2.0 1 ------- null}
r -t 0.5596 -s 3 -d 0 -p tcp -e 1040 -c 2 -i 14 -a 2 -x {3.0 1.1 1 ------- null}
+ -t 0.5596 -s 0 -d 1 -p tcp -e 1040 -c 2 -i 14 -a 2 -x {3.0 1.1 1 ------- null}
- -t 0.5596 -s 0 -d 1 -p tcp -e 1040 -c 2 -i 14 -a 2 -x {3.0 1.1 1 ------- null}
h -t 0.5596 -s 0 -d 1 -p tcp -e 1040 -c 2 -i 14 -a 2 -x {3.0 1.1 -1 ------- null}
- -t 0.56592 -s 0 -d 2 -p tcp -e 1040 -c 1 -i 19 -a 1 -x {0.0 2.1 4 ------- null}
h -t 0.56592 -s 0 -d 2 -p tcp -e 1040 -c 1 -i 19 -a 1 -x {0.0 2.1 -1 ------- null}
- -t 0.56592 -s 4 -d 0 -p tcp -e 1040 -c 3 -i 22 -a 3 -x {4.0 0.1 4 ------- null}
h -t 0.56592 -s 4 -d 0 -p tcp -e 1040 -c 3 -i 22 -a 3 -x {4.0 0.1 -1 ------- null}
r -t 0.56792 -s 1 -d 0 -p tcp -e 1040 -c 0 -i 13 -a 0 -x {1.0 2.0 2 ------- null}
+ -t 0.56792 -s 0 -d 2 -p tcp -e 1040 -c 0 -i 13 -a 0 -x {1.0 2.0 2 ------- null}
r -t 0.56792 -s 3 -d 0 -p tcp -e 1040 -c 2 -i 15 -a 2 -x {3.0 1.1 2 ------- null}
+ -t 0.56792 -s 0 -d 1 -p tcp -e 1040 -c 2 -i 15 -a 2 -x {3.0 1.1 2 ------- null}
- -t 0.56792 -s 0 -d 1 -p tcp -e 1040 -c 2 -i 15 -a 2 -x {3.0 1.1 2 ------- null}
h -t 0.56792 -s 0 -d 1 -p tcp -e 1040 -c 2 -i 15 -a 2 -x {3.0 1.1 -1 ------- null}
- -t 0.57424 -s 0 -d 2 -p tcp -e 1040 -c 1 -i 20 -a 1 -x {0.0 2.1 5 ------- null}
h -t 0.57424 -s 0 -d 2 -p tcp -e 1040 -c 1 -i 20 -a 1 -x {0.0 2.1 -1 ------- null}
- -t 0.57424 -s 4 -d 0 -p tcp -e 1040 -c 3 -i 23 -a 3 -x {4.0 0.1 5 ------- null}
h -t 0.57424 -s 4 -d 0 -p tcp -e 1040 -c 3 -i 23 -a 3 -x {4.0 0.1 -1 ------- null}
r -t 0.57592 -s 0 -d 2 -p tcp -e 1040 -c 1 -i 18 -a 1 -x {0.0 2.1 3 ------- null}
r -t 0.57592 -s 4 -d 0 -p tcp -e 1040 -c 3 -i 21 -a 3 -x {4.0 0.1 3 ------- null}
r -t 0.57792 -s 0 -d 1 -p tcp -e 1040 -c 2 -i 14 -a 2 -x {3.0 1.1 1 ------- null}
- -t 0.58256 -s 0 -d 2 -p tcp -e 1040 -c 0 -i 12 -a 0 -x {1.0 2.0 1 ------- null}
h -t 0.58256 -s 0 -d 2 -p tcp -e 1040 -c 0 -i 12 -a 0 -x {1.0 2.0 -1 ------- null}
r -t 0.58424 -s 0 -d 2 -p tcp -e 1040 -c 1 -i 19 -a 1 -x {0.0 2.1 4 ------- null}
+ -t 0.58424 -s 2 -d 0 -p ack -e 40 -c 1 -i 24 -a 1 -x {2.1 0.0 4 ------- null}
- -t 0.58424 -s 2 -d 0 -p ack -e 40 -c 1 -i 24 -a 1 -x {2.1 0.0 4 ------- null}
h -t 0.58424 -s 2 -d 0 -p ack -e 40 -c 1 -i 24 -a 1 -x {2.1 0.0 -1 ------- null}
r -t 0.58424 -s 4 -d 0 -p tcp -e 1040 -c 3 -i 22 -a 3 -x {4.0 0.1 4 ------- null}
+ -t 0.58424 -s 0 -d 4 -p ack -e 40 -c 3 -i 25 -a 3 -x {0.1 4.0 4 ------- null}
- -t 0.58424 -s 0 -d 4 -p ack -e 40 -c 3 -i 25 -a 3 -x {0.1 4.0 4 ------- null}
h -t 0.58424 -s 0 -d 4 -p ack -e 40 -c 3 -i 25 -a 3 -x {0.1 4.0 -1 ------- null}
r -t 0.58624 -s 0 -d 1 -p tcp -e 1040 -c 2 -i 15 -a 2 -x {3.0 1.1 2 ------- null}
+ -t 0.58624 -s 1 -d 0 -p ack -e 40 -c 2 -i 26 -a 2 -x {1.1 3.0 2 ------- null}
- -t 0.58624 -s 1 -d 0 -p ack -e 40 -c 2 -i 26 -a 2 -x {1.1 3.0 2 ------- null}
h -t 0.58624 -s 1 -d 0 -p ack -e 40 -c 2 -i 26 -a 2 -x {1.1 3.0 -1 ------- null}
- -t 0.59088 -s 0 -d 2 -p tcp -e 1040 -c 0 -i 13 -a 0 -x {1.0 2.0 2 ------- null}
h -t 0.59088 -s 0 -d 2 -p tcp -e 1040 -c 0 -i 13 -a 0 -x {1.0 2.0 -1 ------- null}
r -t 0.59256 -s 0 -d 2 -p tcp -e 1040 -c 1 -i 20 -a 1 -x {0.0 2.1 5 ------- null}
r -t 0.59256 -s 4 -d 0 -p tcp -e 1040 -c 3 -i 23 -a 3 -x {4.0 0.1 5 ------- null}
r -t 0.59456 -s 2 -d 0 -p ack -e 40 -c 1 -i 24 -a 1 -x {2.1 0.0 4 ------- null}
+ -t 0.59456 -s 0 -d 2 -p tcp -e 1040 -c 1 -i 27 -a 1 -x {0.0 2.1 6 ------- null}
+ -t 0.59456 -s 0 -d 2 -p tcp -e 1040 -c 1 -i 28 -a 1 -x {0.0 2.1 7 ------- null}
+ -t 0.59456 -s 0 -d 2 -p tcp -e 1040 -c 1 -i 29 -a 1 -x {0.0 2.1 8 ------- null}
r -t 0.59456 -s 0 -d 4 -p ack -e 40 -c 3 -i 25 -a 3 -x {0.1 4.0 4 ------- null}
+ -t 0.59456 -s 4 -d 0 -p tcp -e 1040 -c 3 -i 30 -a 3 -x {4.0 0.1 6 ------- null}
- -t 0.59456 -s 4 -d 0 -p tcp -e 1040 -c 3 -i 30 -a 3 -x {4.0 0.1 6 ------- null}
h -t 0.59456 -s 4 -d 0 -p tcp -e 1040 -c 3 -i 30 -a 3 -x {4.0 0.1 -1 ------- null}
+ -t 0.59456 -s 4 -d 0 -p tcp -e 1040 -c 3 -i 31 -a 3 -x {4.0 0.1 7 ------- null}
+ -t 0.59456 -s 4 -d 0 -p tcp -e 1040 -c 3 -i 32 -a 3 -x {4.0 0.1 8 ------- null}
r -t 0.59656 -s 1 -d 0 -p ack -e 40 -c 2 -i 26 -a 2 -x {1.1 3.0 2 ------- null}
+ -t 0.59656 -s 0 -d 3 -p ack -e 40 -c 2 -i 26 -a 2 -x {1.1 3.0 2 ------- null}
- -t 0.59656 -s 0 -d 3 -p ack -e 40 -c 2 -i 26 -a 2 -x {1.1 3.0 2 ------- null}
h -t 0.59656 -s 0 -d 3 -p ack -e 40 -c 2 -i 26 -a 2 -x {1.1 3.0 -1 ------- null}
- -t 0.5992 -s 0 -d 2 -p tcp -e 1040 -c 1 -i 27 -a 1 -x {0.0 2.1 6 ------- null}
h -t 0.5992 -s 0 -d 2 -p tcp -e 1040 -c 1 -i 27 -a 1 -x {0.0 2.1 -1 ------- null}
r -t 0.60088 -s 0 -d 2 -p tcp -e 1040 -c 0 -i 12 -a 0 -x {1.0 2.0 1 ------- null}
- -t 0.60288 -s 4 -d 0 -p tcp -e 1040 -c 3 -i 31 -a 3 -x {4.0 0.1 7 ------- null}
h -t 0.60288 -s 4 -d 0 -p tcp -e 1040 -c 3 -i 31 -a 3 -x {4.0 0.1 -1 ------- null}
r -t 0.60688 -s 0 -d 3 -p ack -e 40 -c 2 -i 26 -a 2 -x {1.1 3.0 2 ------- null}
+ -t 0.60688 -s 3 -d 0 -p tcp -e 1040 -c 2 -i 33 -a 2 -x {3.0 1.1 3 ------- null}
- -t 0.60688 -s 3 -d 0 -p tcp -e 1040 -c 2 -i 33 -a 2 -x {3.0 1.1 3 ------- null}
h -t 0.60688 -s 3 -d 0 -p tcp -e 1040 -c 2 -i 33 -a 2 -x {3.0 1.1 -1 ------- null}
+ -t 0.60688 -s 3 -d 0 -p tcp -e 1040 -c 2 -i 34 -a 2 -x {3.0 1.1 4 ------- null}
+ -t 0.60688 -s 3 -d 0 -p tcp -e 1040 -c 2 -i 35 -a 2 -x {3.0 1.1 5 ------- null}
- -t 0.60752 -s 0 -d 2 -p tcp -e 1040 -c 1 -i 28 -a 1 -x {0.0 2.1 7 ------- null}
h -t 0.60752 -s 0 -d 2 -p tcp -e 1040 -c 1 -i 28 -a 1 -x {0.0 2.1 -1 ------- null}
r -t 0.6092 -s 0 -d 2 -p tcp -e 1040 -c 0 -i 13 -a 0 -x {1.0 2.0 2 ------- null}
+ -t 0.6092 -s 2 -d 0 -p ack -e 40 -c 0 -i 36 -a 0 -x {2.0 1.0 2 ------- null}
- -t 0.6092 -s 2 -d 0 -p ack -e 40 -c 0 -i 36 -a 0 -x {2.0 1.0 2 ------- null}
h -t 0.6092 -s 2 -d 0 -p ack -e 40 -c 0 -i 36 -a 0 -x {2.0 1.0 -1 ------- null}
- -t 0.6112 -s 4 -d 0 -p tcp -e 1040 -c 3 -i 32 -a 3 -x {4.0 0.1 8 ------- null}
h -t 0.6112 -s 4 -d 0 -p tcp -e 1040 -c 3 -i 32 -a 3 -x {4.0 0.1 -1 ------- null}
r -t 0.61288 -s 4 -d 0 -p tcp -e 1040 -c 3 -i 30 -a 3 -x {4.0 0.1 6 ------- null}
+ -t 0.61288 -s 0 -d 4 -p ack -e 40 -c 3 -i 37 -a 3 -x {0.1 4.0 6 ------- null}
- -t 0.61288 -s 0 -d 4 -p ack -e 40 -c 3 -i 37 -a 3 -x {0.1 4.0 6 ------- null}
h -t 0.61288 -s 0 -d 4 -p ack -e 40 -c 3 -i 37 -a 3 -x {0.1 4.0 -1 ------- null}
- -t 0.6152 -s 3 -d 0 -p tcp -e 1040 -c 2 -i 34 -a 2 -x {3.0 1.1 4 ------- null}
h -t 0.6152 -s 3 -d 0 -p tcp -e 1040 -c 2 -i 34 -a 2 -x {3.0 1.1 -1 ------- null}
- -t 0.61584 -s 0 -d 2 -p tcp -e 1040 -c 1 -i 29 -a 1 -x {0.0 2.1 8 ------- null}
h -t 0.61584 -s 0 -d 2 -p tcp -e 1040 -c 1 -i 29 -a 1 -x {0.0 2.1 -1 ------- null}
r -t 0.61752 -s 0 -d 2 -p tcp -e 1040 -c 1 -i 27 -a 1 -x {0.0 2.1 6 ------- null}
+ -t 0.61752 -s 2 -d 0 -p ack -e 40 -c 1 -i 38 -a 1 -x {2.1 0.0 6 ------- null}
- -t 0.61752 -s 2 -d 0 -p ack -e 40 -c 1 -i 38 -a 1 -x {2.1 0.0 6 ------- null}
h -t 0.61752 -s 2 -d 0 -p ack -e 40 -c 1 -i 38 -a 1 -x {2.1 0.0 -1 ------- null}
r -t 0.61952 -s 2 -d 0 -p ack -e 40 -c 0 -i 36 -a 0 -x {2.0 1.0 2 ------- null}
+ -t 0.61952 -s 0 -d 1 -p ack -e 40 -c 0 -i 36 -a 0 -x {2.0 1.0 2 ------- null}
- -t 0.61952 -s 0 -d 1 -p ack -e 40 -c 0 -i 36 -a 0 -x {2.0 1.0 2 ------- null}
h -t 0.61952 -s 0 -d 1 -p ack -e 40 -c 0 -i 36 -a 0 -x {2.0 1.0 -1 ------- null}
r -t 0.6212 -s 4 -d 0 -p tcp -e 1040 -c 3 -i 31 -a 3 -x {4.0 0.1 7 ------- null}
r -t 0.6232 -s 0 -d 4 -p ack -e 40 -c 3 -i 37 -a 3 -x {0.1 4.0 6 ------- null}
+ -t 0.6232 -s 4 -d 0 -p tcp -e 1040 -c 3 -i 39 -a 3 -x {4.0 0.1 9 ------- null}
- -t 0.6232 -s 4 -d 0 -p tcp -e 1040 -c 3 -i 39 -a 3 -x {4.0 0.1 9 ------- null}
h -t 0.6232 -s 4 -d 0 -p tcp -e 1040 -c 3 -i 39 -a 3 -x {4.0 0.1 -1 ------- null}
+ -t 0.6232 -s 4 -d 0 -p tcp -e 1040 -c 3 -i 40 -a 3 -x {4.0 0.1 10 ------- null}
+ -t 0.6232 -s 4 -d 0 -p tcp -e 1040 -c 3 -i 41 -a 3 -x {4.0 0.1 11 ------- null}
- -t 0.62352 -s 3 -d 0 -p tcp -e 1040 -c 2 -i 35 -a 2 -x {3.0 1.1 5 ------- null}
h -t 0.62352 -s 3 -d 0 -p tcp -e 1040 -c 2 -i 35 -a 2 -x {3.0 1.1 -1 ------- null}
r -t 0.6252 -s 3 -d 0 -p tcp -e 1040 -c 2 -i 33 -a 2 -x {3.0 1.1 3 ------- null}
+ -t 0.6252 -s 0 -d 1 -p tcp -e 1040 -c 2 -i 33 -a 2 -x {3.0 1.1 3 ------- null}
- -t 0.6252 -s 0 -d 1 -p tcp -e 1040 -c 2 -i 33 -a 2 -x {3.0 1.1 3 ------- null}
h -t 0.6252 -s 0 -d 1 -p tcp -e 1040 -c 2 -i 33 -a 2 -x {3.0 1.1 -1 ------- null}
r -t 0.62584 -s 0 -d 2 -p tcp -e 1040 -c 1 -i 28 -a 1 -x {0.0 2.1 7 ------- null}
r -t 0.62784 -s 2 -d 0 -p ack -e 40 -c 1 -i 38 -a 1 -x {2.1 0.0 6 ------- null}
+ -t 0.62784 -s 0 -d 2 -p tcp -e 1040 -c 1 -i 42 -a 1 -x {0.0 2.1 9 ------- null}
- -t 0.62784 -s 0 -d 2 -p tcp -e 1040 -c 1 -i 42 -a 1 -x {0.0 2.1 9 ------- null}
h -t 0.62784 -s 0 -d 2 -p tcp -e 1040 -c 1 -i 42 -a 1 -x {0.0 2.1 -1 ------- null}
+ -t 0.62784 -s 0 -d 2 -p tcp -e 1040 -c 1 -i 43 -a 1 -x {0.0 2.1 10 ------- null}
+ -t 0.62784 -s 0 -d 2 -p tcp -e 1040 -c 1 -i 44 -a 1 -x {0.0 2.1 11 ------- null}
r -t 0.62952 -s 4 -d 0 -p tcp -e 1040 -c 3 -i 32 -a 3 -x {4.0 0.1 8 ------- null}
+ -t 0.62952 -s 0 -d 4 -p ack -e 40 -c 3 -i 45 -a 3 -x {0.1 4.0 8 ------- null}
- -t 0.62952 -s 0 -d 4 -p ack -e 40 -c 3 -i 45 -a 3 -x {0.1 4.0 8 ------- null}
h -t 0.62952 -s 0 -d 4 -p ack -e 40 -c 3 -i 45 -a 3 -x {0.1 4.0 -1 ------- null}
r -t 0.62984 -s 0 -d 1 -p ack -e 40 -c 0 -i 36 -a 0 -x {2.0 1.0 2 ------- null}
+ -t 0.62984 -s 1 -d 0 -p tcp -e 1040 -c 0 -i 46 -a 0 -x {1.0 2.0 3 ------- null}
- -t 0.62984 -s 1 -d 0 -p tcp -e 1040 -c 0 -i 46 -a 0 -x {1.0 2.0 3 ------- null}
h -t 0.62984 -s 1 -d 0 -p tcp -e 1040 -c 0 -i 46 -a 0 -x {1.0 2.0 -1 ------- null}
+ -t 0.62984 -s 1 -d 0 -p tcp -e 1040 -c 0 -i 47 -a 0 -x {1.0 2.0 4 ------- null}
+ -t 0.62984 -s 1 -d 0 -p tcp -e 1040 -c 0 -i 48 -a 0 -x {1.0 2.0 5 ------- null}
- -t 0.63152 -s 4 -d 0 -p tcp -e 1040 -c 3 -i 40 -a 3 -x {4.0 0.1 10 ------- null}
h -t 0.63152 -s 4 -d 0 -p tcp -e 1040 -c 3 -i 40 -a 3 -x {4.0 0.1 -1 ------- null}
r -t 0.63352 -s 3 -d 0 -p tcp -e 1040 -c 2 -i 34 -a 2 -x {3.0 1.1 4 ------- null}
+ -t 0.63352 -s 0 -d 1 -p tcp -e 1040 -c 2 -i 34 -a 2 -x {3.0 1.1 4 ------- null}
- -t 0.63352 -s 0 -d 1 -p tcp -e 1040 -c 2 -i 34 -a 2 -x {3.0 1.1 4 ------- null}
h -t 0.63352 -s 0 -d 1 -p tcp -e 1040 -c 2 -i 34 -a 2 -x {3.0 1.1 -1 ------- null}
r -t 0.63416 -s 0 -d 2 -p tcp -e 1040 -c 1 -i 29 -a 1 -x {0.0 2.1 8 ------- null}
+ -t 0.63416 -s 2 -d 0 -p ack -e 40 -c 1 -i 49 -a 1 -x {2.1 0.0 8 ------- null}
- -t 0.63416 -s 2 -d 0 -p ack -e 40 -c 1 -i 49 -a 1 -x {2.1 0.0 8 ------- null}
h -t 0.63416 -s 2 -d 0 -p ack -e 40 -c 1 -i 49 -a 1 -x {2.1 0.0 -1 ------- null}
- -t 0.63616 -s 0 -d 2 -p tcp -e 1040 -c 1 -i 43 -a 1 -x {0.0 2.1 10 ------- null}
h -t 0.63616 -s 0 -d 2 -p tcp -e 1040 -c 1 -i 43 -a 1 -x {0.0 2.1 -1 ------- null}
- -t 0.63816 -s 1 -d 0 -p tcp -e 1040 -c 0 -i 47 -a 0 -x {1.0 2.0 4 ------- null}
h -t 0.63816 -s 1 -d 0 -p tcp -e 1040 -c 0 -i 47 -a 0 -x {1.0 2.0 -1 ------- null}
r -t 0.63984 -s 0 -d 4 -p ack -e 40 -c 3 -i 45 -a 3 -x {0.1 4.0 8 ------- null}
+ -t 0.63984 -s 4 -d 0 -p tcp -e 1040 -c 3 -i 50 -a 3 -x {4.0 0.1 12 ------- null}
+ -t 0.63984 -s 4 -d 0 -p tcp -e 1040 -c 3 -i 51 -a 3 -x {4.0 0.1 13 ------- null}
+ -t 0.63984 -s 4 -d 0 -p tcp -e 1040 -c 3 -i 52 -a 3 -x {4.0 0.1 14 ------- null}
- -t 0.63984 -s 4 -d 0 -p tcp -e 1040 -c 3 -i 41 -a 3 -x {4.0 0.1 11 ------- null}
h -t 0.63984 -s 4 -d 0 -p tcp -e 1040 -c 3 -i 41 -a 3 -x {4.0 0.1 -1 ------- null}
r -t 0.64152 -s 4 -d 0 -p tcp -e 1040 -c 3 -i 39 -a 3 -x {4.0 0.1 9 ------- null}
r -t 0.64184 -s 3 -d 0 -p tcp -e 1040 -c 2 -i 35 -a 2 -x {3.0 1.1 5 ------- null}
+ -t 0.64184 -s 0 -d 1 -p tcp -e 1040 -c 2 -i 35 -a 2 -x {3.0 1.1 5 ------- null}
- -t 0.64184 -s 0 -d 1 -p tcp -e 1040 -c 2 -i 35 -a 2 -x {3.0 1.1 5 ------- null}
h -t 0.64184 -s 0 -d 1 -p tcp -e 1040 -c 2 -i 35 -a 2 -x {3.0 1.1 -1 ------- null}
r -t 0.64352 -s 0 -d 1 -p tcp -e 1040 -c 2 -i 33 -a 2 -x {3.0 1.1 3 ------- null}
r -t 0.64448 -s 2 -d 0 -p ack -e 40 -c 1 -i 49 -a 1 -x {2.1 0.0 8 ------- null}
+ -t 0.64448 -s 0 -d 2 -p tcp -e 1040 -c 1 -i 53 -a 1 -x {0.0 2.1 12 ------- null}
+ -t 0.64448 -s 0 -d 2 -p tcp -e 1040 -c 1 -i 54 -a 1 -x {0.0 2.1 13 ------- null}
+ -t 0.64448 -s 0 -d 2 -p tcp -e 1040 -c 1 -i 55 -a 1 -x {0.0 2.1 14 ------- null}
- -t 0.64448 -s 0 -d 2 -p tcp -e 1040 -c 1 -i 44 -a 1 -x {0.0 2.1 11 ------- null}
h -t 0.64448 -s 0 -d 2 -p tcp -e 1040 -c 1 -i 44 -a 1 -x {0.0 2.1 -1 ------- null}
r -t 0.64616 -s 0 -d 2 -p tcp -e 1040 -c 1 -i 42 -a 1 -x {0.0 2.1 9 ------- null}
- -t 0.64648 -s 1 -d 0 -p tcp -e 1040 -c 0 -i 48 -a 0 -x {1.0 2.0 5 ------- null}
h -t 0.64648 -s 1 -d 0 -p tcp -e 1040 -c 0 -i 48 -a 0 -x {1.0 2.0 -1 ------- null}
r -t 0.64816 -s 1 -d 0 -p tcp -e 1040 -c 0 -i 46 -a 0 -x {1.0 2.0 3 ------- null}
+ -t 0.64816 -s 0 -d 2 -p tcp -e 1040 -c 0 -i 46 -a 0 -x {1.0 2.0 3 ------- null}
- -t 0.64816 -s 4 -d 0 -p tcp -e 1040 -c 3 -i 50 -a 3 -x {4.0 0.1 12 ------- null}
h -t 0.64816 -s 4 -d 0 -p tcp -e 1040 -c 3 -i 50 -a 3 -x {4.0 0.1 -1 ------- null}
r -t 0.64984 -s 4 -d 0 -p tcp -e 1040 -c 3 -i 40 -a 3 -x {4.0 0.1 10 ------- null}
+ -t 0.64984 -s 0 -d 4 -p ack -e 40 -c 3 -i 56 -a 3 -x {0.1 4.0 10 ------- null}
- -t 0.64984 -s 0 -d 4 -p ack -e 40 -c 3 -i 56 -a 3 -x {0.1 4.0 10 ------- null}
h -t 0.64984 -s 0 -d 4 -p ack -e 40 -c 3 -i 56 -a 3 -x {0.1 4.0 -1 ------- null}
r -t 0.65184 -s 0 -d 1 -p tcp -e 1040 -c 2 -i 34 -a 2 -x {3.0 1.1 4 ------- null}
+ -t 0.65184 -s 1 -d 0 -p ack -e 40 -c 2 -i 57 -a 2 -x {1.1 3.0 4 ------- null}
- -t 0.6528 -s 0 -d 2 -p tcp -e 1040 -c 1 -i 53 -a 1 -x {0.0 2.1 12 ------- null}
h -t 0.6528 -s 0 -d 2 -p tcp -e 1040 -c 1 -i 53 -a 1 -x {0.0 2.1 -1 ------- null}
r -t 0.65448 -s 0 -d 2 -p tcp -e 1040 -c 1 -i 43 -a 1 -x {0.0 2.1 10 ------- null}
+ -t 0.65448 -s 2 -d 0 -p ack -e 40 -c 1 -i 58 -a 1 -x {2.1 0.0 10 ------- null}
- -t 0.65448 -s 2 -d 0 -p ack -e 40 -c 1 -i 58 -a 1 -x {2.1 0.0 10 ------- null}
h -t 0.65448 -s 2 -d 0 -p ack -e 40 -c 1 -i 58 -a 1 -x {2.1 0.0 -1 ------- null}
- -t 0.6548 -s 1 -d 0 -p ack -e 40 -c 2 -i 57 -a 2 -x {1.1 3.0 4 ------- null}
h -t 0.6548 -s 1 -d 0 -p ack -e 40 -c 2 -i 57 -a 2 -x {1.1 3.0 -1 ------- null}
r -t 0.65648 -s 1 -d 0 -p tcp -e 1040 -c 0 -i 47 -a 0 -x {1.0 2.0 4 ------- null}
+ -t 0.65648 -s 0 -d 2 -p tcp -e 1040 -c 0 -i 47 -a 0 -x {1.0 2.0 4 ------- null}
- -t 0.65648 -s 4 -d 0 -p tcp -e 1040 -c 3 -i 51 -a 3 -x {4.0 0.1 13 ------- null}
h -t 0.65648 -s 4 -d 0 -p tcp -e 1040 -c 3 -i 51 -a 3 -x {4.0 0.1 -1 ------- null}
r -t 0.65816 -s 4 -d 0 -p tcp -e 1040 -c 3 -i 41 -a 3 -x {4.0 0.1 11 ------- null}
r -t 0.66016 -s 0 -d 1 -p tcp -e 1040 -c 2 -i 35 -a 2 -x {3.0 1.1 5 ------- null}
r -t 0.66016 -s 0 -d 4 -p ack -e 40 -c 3 -i 56 -a 3 -x {0.1 4.0 10 ------- null}
+ -t 0.66016 -s 4 -d 0 -p tcp -e 1040 -c 3 -i 59 -a 3 -x {4.0 0.1 15 ------- null}
+ -t 0.66016 -s 4 -d 0 -p tcp -e 1040 -c 3 -i 60 -a 3 -x {4.0 0.1 16 ------- null}
+ -t 0.66016 -s 4 -d 0 -p tcp -e 1040 -c 3 -i 61 -a 3 -x {4.0 0.1 17 ------- null}
- -t 0.66112 -s 0 -d 2 -p tcp -e 1040 -c 1 -i 54 -a 1 -x {0.0 2.1 13 ------- null}
h -t 0.66112 -s 0 -d 2 -p tcp -e 1040 -c 1 -i 54 -a 1 -x {0.0 2.1 -1 ------- null}
r -t 0.6628 -s 0 -d 2 -p tcp -e 1040 -c 1 -i 44 -a 1 -x {0.0 2.1 11 ------- null}
r -t 0.6648 -s 1 -d 0 -p tcp -e 1040 -c 0 -i 48 -a 0 -x {1.0 2.0 5 ------- null}
+ -t 0.6648 -s 0 -d 2 -p tcp -e 1040 -c 0 -i 48 -a 0 -x {1.0 2.0 5 ------- null}
r -t 0.6648 -s 2 -d 0 -p ack -e 40 -c 1 -i 58 -a 1 -x {2.1 0.0 10 ------- null}
+ -t 0.6648 -s 0 -d 2 -p tcp -e 1040 -c 1 -i 62 -a 1 -x {0.0 2.1 15 ------- null}
+ -t 0.6648 -s 0 -d 2 -p tcp -e 1040 -c 1 -i 63 -a 1 -x {0.0 2.1 16 ------- null}
+ -t 0.6648 -s 0 -d 2 -p tcp -e 1040 -c 1 -i 64 -a 1 -x {0.0 2.1 17 ------- null}
- -t 0.6648 -s 4 -d 0 -p tcp -e 1040 -c 3 -i 52 -a 3 -x {4.0 0.1 14 ------- null}
h -t 0.6648 -s 4 -d 0 -p tcp -e 1040 -c 3 -i 52 -a 3 -x {4.0 0.1 -1 ------- null}
r -t 0.66512 -s 1 -d 0 -p ack -e 40 -c 2 -i 57 -a 2 -x {1.1 3.0 4 ------- null}
+ -t 0.66512 -s 0 -d 3 -p ack -e 40 -c 2 -i 57 -a 2 -x {1.1 3.0 4 ------- null}
- -t 0.66512 -s 0 -d 3 -p ack -e 40 -c 2 -i 57 -a 2 -x {1.1 3.0 4 ------- null}
h -t 0.66512 -s 0 -d 3 -p ack -e 40 -c 2 -i 57 -a 2 -x {1.1 3.0 -1 ------- null}
r -t 0.66648 -s 4 -d 0 -p tcp -e 1040 -c 3 -i 50 -a 3 -x {4.0 0.1 12 ------- null}
+ -t 0.66648 -s 0 -d 4 -p ack -e 40 -c 3 -i 65 -a 3 -x {0.1 4.0 12 ------- null}
- -t 0.66648 -s 0 -d 4 -p ack -e 40 -c 3 -i 65 -a 3 -x {0.1 4.0 12 ------- null}
h -t 0.66648 -s 0 -d 4 -p ack -e 40 -c 3 -i 65 -a 3 -x {0.1 4.0 -1 ------- null}
- -t 0.66944 -s 0 -d 2 -p tcp -e 1040 -c 1 -i 55 -a 1 -x {0.0 2.1 14 ------- null}
h -t 0.66944 -s 0 -d 2 -p tcp -e 1040 -c 1 -i 55 -a 1 -x {0.0 2.1 -1 ------- null}
r -t 0.67112 -s 0 -d 2 -p tcp -e 1040 -c 1 -i 53 -a 1 -x {0.0 2.1 12 ------- null}
+ -t 0.67112 -s 2 -d 0 -p ack -e 40 -c 1 -i 66 -a 1 -x {2.1 0.0 12 ------- null}
- -t 0.67112 -s 2 -d 0 -p ack -e 40 -c 1 -i 66 -a 1 -x {2.1 0.0 12 ------- null}
h -t 0.67112 -s 2 -d 0 -p ack -e 40 -c 1 -i 66 -a 1 -x {2.1 0.0 -1 ------- null}
- -t 0.67312 -s 4 -d 0 -p tcp -e 1040 -c 3 -i 59 -a 3 -x {4.0 0.1 15 ------- null}
h -t 0.67312 -s 4 -d 0 -p tcp -e 1040 -c 3 -i 59 -a 3 -x {4.0 0.1 -1 ------- null}
r -t 0.6748 -s 4 -d 0 -p tcp -e 1040 -c 3 -i 51 -a 3 -x {4.0 0.1 13 ------- null}
r -t 0.67544 -s 0 -d 3 -p ack -e 40 -c 2 -i 57 -a 2 -x {1.1 3.0 4 ------- null}
+ -t 0.67544 -s 3 -d 0 -p tcp -e 1040 -c 2 -i 67 -a 2 -x {3.0 1.1 6 ------- null}
- -t 0.67544 -s 3 -d 0 -p tcp -e 1040 -c 2 -i 67 -a 2 -x {3.0 1.1 6 ------- null}
h -t 0.67544 -s 3 -d 0 -p tcp -e 1040 -c 2 -i 67 -a 2 -x {3.0 1.1 -1 ------- null}
+ -t 0.67544 -s 3 -d 0 -p tcp -e 1040 -c 2 -i 68 -a 2 -x {3.0 1.1 7 ------- null}
+ -t 0.67544 -s 3 -d 0 -p tcp -e 1040 -c 2 -i 69 -a 2 -x {3.0 1.1 8 ------- null}
r -t 0.6768 -s 0 -d 4 -p ack -e 40 -c 3 -i 65 -a 3 -x {0.1 4.0 12 ------- null}
+ -t 0.6768 -s 4 -d 0 -p tcp -e 1040 -c 3 -i 70 -a 3 -x {4.0 0.1 18 ------- null}
+ -t 0.6768 -s 4 -d 0 -p tcp -e 1040 -c 3 -i 71 -a 3 -x {4.0 0.1 19 ------- null}
+ -t 0.6768 -s 4 -d 0 -p tcp -e 1040 -c 3 -i 72 -a 3 -x {4.0 0.1 20 ------- null}
- -t 0.67776 -s 0 -d 2 -p tcp -e 1040 -c 0 -i 46 -a 0 -x {1.0 2.0 3 ------- null}
h -t 0.67776 -s 0 -d 2 -p tcp -e 1040 -c 0 -i 46 -a 0 -x {1.0 2.0 -1 ------- null}
r -t 0.67944 -s 0 -d 2 -p tcp -e 1040 -c 1 -i 54 -a 1 -x {0.0 2.1 13 ------- null}
r -t 0.68144 -s 2 -d 0 -p ack -e 40 -c 1 -i 66 -a 1 -x {2.1 0.0 12 ------- null}
+ -t 0.68144 -s 0 -d 2 -p tcp -e 1040 -c 1 -i 73 -a 1 -x {0.0 2.1 18 ------- null}
+ -t 0.68144 -s 0 -d 2 -p tcp -e 1040 -c 1 -i 74 -a 1 -x {0.0 2.1 19 ------- null}
+ -t 0.68144 -s 0 -d 2 -p tcp -e 1040 -c 1 -i 75 -a 1 -x {0.0 2.1 20 ------- null}
- -t 0.68144 -s 4 -d 0 -p tcp -e 1040 -c 3 -i 60 -a 3 -x {4.0 0.1 16 ------- null}
h -t 0.68144 -s 4 -d 0 -p tcp -e 1040 -c 3 -i 60 -a 3 -x {4.0 0.1 -1 ------- null}
r -t 0.68312 -s 4 -d 0 -p tcp -e 1040 -c 3 -i 52 -a 3 -x {4.0 0.1 14 ------- null}
+ -t 0.68312 -s 0 -d 4 -p ack -e 40 -c 3 -i 76 -a 3 -x {0.1 4.0 14 ------- null}
- -t 0.68312 -s 0 -d 4 -p ack -e 40 -c 3 -i 76 -a 3 -x {0.1 4.0 14 ------- null}
h -t 0.68312 -s 0 -d 4 -p ack -e 40 -c 3 -i 76 -a 3 -x {0.1 4.0 -1 ------- null}
- -t 0.68376 -s 3 -d 0 -p tcp -e 1040 -c 2 -i 68 -a 2 -x {3.0 1.1 7 ------- null}
h -t 0.68376 -s 3 -d 0 -p tcp -e 1040 -c 2 -i 68 -a 2 -x {3.0 1.1 -1 ------- null}
- -t 0.68608 -s 0 -d 2 -p tcp -e 1040 -c 0 -i 47 -a 0 -x {1.0 2.0 4 ------- null}
h -t 0.68608 -s 0 -d 2 -p tcp -e 1040 -c 0 -i 47 -a 0 -x {1.0 2.0 -1 ------- null}
r -t 0.68776 -s 0 -d 2 -p tcp -e 1040 -c 1 -i 55 -a 1 -x {0.0 2.1 14 ------- null}
+ -t 0.68776 -s 2 -d 0 -p ack -e 40 -c 1 -i 77 -a 1 -x {2.1 0.0 14 ------- null}
- -t 0.68776 -s 2 -d 0 -p ack -e 40 -c 1 -i 77 -a 1 -x {2.1 0.0 14 ------- null}
h -t 0.68776 -s 2 -d 0 -p ack -e 40 -c 1 -i 77 -a 1 -x {2.1 0.0 -1 ------- null}
- -t 0.68976 -s 4 -d 0 -p tcp -e 1040 -c 3 -i 61 -a 3 -x {4.0 0.1 17 ------- null}
h -t 0.68976 -s 4 -d 0 -p tcp -e 1040 -c 3 -i 61 -a 3 -x {4.0 0.1 -1 ------- null}
r -t 0.69144 -s 4 -d 0 -p tcp -e 1040 -c 3 -i 59 -a 3 -x {4.0 0.1 15 ------- null}
- -t 0.69208 -s 3 -d 0 -p tcp -e 1040 -c 2 -i 69 -a 2 -x {3.0 1.1 8 ------- null}
h -t 0.69208 -s 3 -d 0 -p tcp -e 1040 -c 2 -i 69 -a 2 -x {3.0 1.1 -1 ------- null}
r -t 0.69344 -s 0 -d 4 -p ack -e 40 -c 3 -i 76 -a 3 -x {0.1 4.0 14 ------- null}
+ -t 0.69344 -s 4 -d 0 -p tcp -e 1040 -c 3 -i 78 -a 3 -x {4.0 0.1 21 ------- null}
+ -t 0.69344 -s 4 -d 0 -p tcp -e 1040 -c 3 -i 79 -a 3 -x {4.0 0.1 22 ------- null}
+ -t 0.69344 -s 4 -d 0 -p tcp -e 1040 -c 3 -i 80 -a 3 -x {4.0 0.1 23 ------- null}
r -t 0.69376 -s 3 -d 0 -p tcp -e 1040 -c 2 -i 67 -a 2 -x {3.0 1.1 6 ------- null}
+ -t 0.69376 -s 0 -d 1 -p tcp -e 1040 -c 2 -i 67 -a 2 -x {3.0 1.1 6 ------- null}
- -t 0.69376 -s 0 -d 1 -p tcp -e 1040 -c 2 -i 67 -a 2 -x {3.0 1.1 6 ------- null}
h -t 0.69376 -s 0 -d 1 -p tcp -e 1040 -c 2 -i 67 -a 2 -x {3.0 1.1 -1 ------- null}
- -t 0.6944 -s 0 -d 2 -p tcp -e 1040 -c 0 -i 48 -a 0 -x {1.0 2.0 5 ------- null}
h -t 0.6944 -s 0 -d 2 -p tcp -e 1040 -c 0 -i 48 -a 0 -x {1.0 2.0 -1 ------- null}
r -t 0.69608 -s 0 -d 2 -p tcp -e 1040 -c 0 -i 46 -a 0 -x {1.0 2.0 3 ------- null}
r -t 0.69808 -s 2 -d 0 -p ack -e 40 -c 1 -i 77 -a 1 -x {2.1 0.0 14 ------- null}
+ -t 0.69808 -s 0 -d 2 -p tcp -e 1040 -c 1 -i 81 -a 1 -x {0.0 2.1 21 ------- null}
+ -t 0.69808 -s 0 -d 2 -p tcp -e 1040 -c 1 -i 82 -a 1 -x {0.0 2.1 22 ------- null}
+ -t 0.69808 -s 0 -d 2 -p tcp -e 1040 -c 1 -i 83 -a 1 -x {0.0 2.1 23 ------- null}
- -t 0.69808 -s 4 -d 0 -p tcp -e 1040 -c 3 -i 70 -a 3 -x {4.0 0.1 18 ------- null}
h -t 0.69808 -s 4 -d 0 -p tcp -e 1040 -c 3 -i 70 -a 3 -x {4.0 0.1 -1 ------- null}
r -t 0.69976 -s 4 -d 0 -p tcp -e 1040 -c 3 -i 60 -a 3 -x {4.0 0.1 16 ------- null}
+ -t 0.69976 -s 0 -d 4 -p ack -e 40 -c 3 -i 84 -a 3 -x {0.1 4.0 16 ------- null}
- -t 0.69976 -s 0 -d 4 -p ack -e 40 -c 3 -i 84 -a 3 -x {0.1 4.0 16 ------- null}