V -t * -v 1.0a5 -a 0
A -t * -n 1 -p 0 -o 0x7fffffff -c 30 -a 1
A -t * -h 1 -m 1073741823 -s 0
c -t * -i 4 -n yellow
c -t * -i 0 -n blue
c -t * -i 5 -n violet
c -t * -i 1 -n red
c -t * -i 2 -n cyan
c -t * -i 3 -n green
n -t * -a 4 -s 4 -S UP -v circle -c red -i red
n -t * -a 0 -s 0 -S UP -v box -c green -i green
n -t * -a 5 -s 5 -S UP -v circle -c red -i red
n -t * -a 1 -s 1 -S UP -v circle -c red -i red
n -t * -a 2 -s 2 -S UP -v circle -c red -i red
n -t * -a 3 -s 3 -S UP -v circle -c red -i red
l -t * -s 0 -d 1 -S UP -r 1000000 -D 0.01 -c black
l -t * -s 0 -d 2 -S UP -r 1000000 -D 0.01 -c black
l -t * -s 0 -d 3 -S UP -r 1000000 -D 0.01 -c black
l -t * -s 0 -d 4 -S UP -r 1000000 -D 0.01 -c black
l -t * -s 0 -d 5 -S UP -r 1000000 -D 0.01 -c black
+ -t 0.5 -s 1 -d 0 -p tcp -e 40 -c 0 -i 0 -a 0 -x {1.0 3.0 0 ------- null}
- -t 0.5 -s 1 -d 0 -p tcp -e 40 -c 0 -i 0 -a 0 -x {1.0 3.0 0 ------- null}
h -t 0.5 -s 1 -d 0 -p tcp -e 40 -c 0 -i 0 -a 0 -x {1.0 3.0 -1 ------- null}
+ -t 0.5 -s 2 -d 0 -p tcp -e 40 -c 1 -i 1 -a 1 -x {2.0 4.0 0 ------- null}
- -t 0.5 -s 2 -d 0 -p tcp -e 40 -c 1 -i 1 -a 1 -x {2.0 4.0 0 ------- null}
h -t 0.5 -s 2 -d 0 -p tcp -e 40 -c 1 -i 1 -a 1 -x {2.0 4.0 -1 ------- null}
+ -t 0.5 -s 3 -d 0 -p tcp -e 40 -c 2 -i 2 -a 2 -x {3.1 5.0 0 ------- null}
- -t 0.5 -s 3 -d 0 -p tcp -e 40 -c 2 -i 2 -a 2 -x {3.1 5.0 0 ------- null}
h -t 0.5 -s 3 -d 0 -p tcp -e 40 -c 2 -i 2 -a 2 -x {3.1 5.0 -1 ------- null}
+ -t 0.5 -s 1 -d 0 -p tcp -e 40 -c 3 -i 3 -a 3 -x {1.1 2.1 0 ------- null}
- -t 0.50032 -s 1 -d 0 -p tcp -e 40 -c 3 -i 3 -a 3 -x {1.1 2.1 0 ------- null}
h -t 0.50032 -s 1 -d 0 -p tcp -e 40 -c 3 -i 3 -a 3 -x {1.1 2.1 -1 ------- null}
r -t 0.51032 -s 1 -d 0 -p tcp -e 40 -c 0 -i 0 -a 0 -x {1.0 3.0 0 ------- null}
+ -t 0.51032 -s 0 -d 3 -p tcp -e 40 -c 0 -i 0 -a 0 -x {1.0 3.0 0 ------- null}
- -t 0.51032 -s 0 -d 3 -p tcp -e 40 -c 0 -i 0 -a 0 -x {1.0 3.0 0 ------- null}
h -t 0.51032 -s 0 -d 3 -p tcp -e 40 -c 0 -i 0 -a 0 -x {1.0 3.0 -1 ------- null}
r -t 0.51032 -s 2 -d 0 -p tcp -e 40 -c 1 -i 1 -a 1 -x {2.0 4.0 0 ------- null}
+ -t 0.51032 -s 0 -d 4 -p tcp -e 40 -c 1 -i 1 -a 1 -x {2.0 4.0 0 ------- null}
- -t 0.51032 -s 0 -d 4 -p tcp -e 40 -c 1 -i 1 -a 1 -x {2.0 4.0 0 ------- null}
h -t 0.51032 -s 0 -d 4 -p tcp -e 40 -c 1 -i 1 -a 1 -x {2.0 4.0 -1 ------- null}
r -t 0.51032 -s 3 -d 0 -p tcp -e 40 -c 2 -i 2 -a 2 -x {3.1 5.0 0 ------- null}
+ -t 0.51032 -s 0 -d 5 -p tcp -e 40 -c 2 -i 2 -a 2 -x {3.1 5.0 0 ------- null}
- -t 0.51032 -s 0 -d 5 -p tcp -e 40 -c 2 -i 2 -a 2 -x {3.1 5.0 0 ------- null}
h -t 0.51032 -s 0 -d 5 -p tcp -e 40 -c 2 -i 2 -a 2 -x {3.1 5.0 -1 ------- null}
r -t 0.51064 -s 1 -d 0 -p tcp -e 40 -c 3 -i 3 -a 3 -x {1.1 2.1 0 ------- null}
+ -t 0.51064 -s 0 -d 2 -p tcp -e 40 -c 3 -i 3 -a 3 -x {1.1 2.1 0 ------- null}
- -t 0.51064 -s 0 -d 2 -p tcp -e 40 -c 3 -i 3 -a 3 -x {1.1 2.1 0 ------- null}
h -t 0.51064 -s 0 -d 2 -p tcp -e 40 -c 3 -i 3 -a 3 -x {1.1 2.1 -1 ------- null}
r -t 0.52064 -s 0 -d 3 -p tcp -e 40 -c 0 -i 0 -a 0 -x {1.0 3.0 0 ------- null}
+ -t 0.52064 -s 3 -d 0 -p ack -e 40 -c 0 -i 4 -a 0 -x {3.0 1.0 0 ------- null}
- -t 0.52064 -s 3 -d 0 -p ack -e 40 -c 0 -i 4 -a 0 -x {3.0 1.0 0 ------- null}
h -t 0.52064 -s 3 -d 0 -p ack -e 40 -c 0 -i 4 -a 0 -x {3.0 1.0 -1 ------- null}
r -t 0.52064 -s 0 -d 4 -p tcp -e 40 -c 1 -i 1 -a 1 -x {2.0 4.0 0 ------- null}
+ -t 0.52064 -s 4 -d 0 -p ack -e 40 -c 1 -i 5 -a 1 -x {4.0 2.0 0 ------- null}
- -t 0.52064 -s 4 -d 0 -p ack -e 40 -c 1 -i 5 -a 1 -x {4.0 2.0 0 ------- null}
h -t 0.52064 -s 4 -d 0 -p ack -e 40 -c 1 -i 5 -a 1 -x {4.0 2.0 -1 ------- null}
r -t 0.52064 -s 0 -d 5 -p tcp -e 40 -c 2 -i 2 -a 2 -x {3.1 5.0 0 ------- null}
+ -t 0.52064 -s 5 -d 0 -p ack -e 40 -c 2 -i 6 -a 2 -x {5.0 3.1 0 ------- null}
- -t 0.52064 -s 5 -d 0 -p ack -e 40 -c 2 -i 6 -a 2 -x {5.0 3.1 0 ------- null}
h -t 0.52064 -s 5 -d 0 -p ack -e 40 -c 2 -i 6 -a 2 -x {5.0 3.1 -1 ------- null}
r -t 0.52096 -s 0 -d 2 -p tcp -e 40 -c 3 -i 3 -a 3 -x {1.1 2.1 0 ------- null}
+ -t 0.52096 -s 2 -d 0 -p ack -e 40 -c 3 -i 7 -a 3 -x {2.1 1.1 0 ------- null}
- -t 0.52096 -s 2 -d 0 -p ack -e 40 -c 3 -i 7 -a 3 -x {2.1 1.1 0 ------- null}
h -t 0.52096 -s 2 -d 0 -p ack -e 40 -c 3 -i 7 -a 3 -x {2.1 1.1 -1 ------- null}
r -t 0.53096 -s 3 -d 0 -p ack -e 40 -c 0 -i 4 -a 0 -x {3.0 1.0 0 ------- null}
+ -t 0.53096 -s 0 -d 1 -p ack -e 40 -c 0 -i 4 -a 0 -x {3.0 1.0 0 ------- null}
- -t 0.53096 -s 0 -d 1 -p ack -e 40 -c 0 -i 4 -a 0 -x {3.0 1.0 0 ------- null}
h -t 0.53096 -s 0 -d 1 -p ack -e 40 -c 0 -i 4 -a 0 -x {3.0 1.0 -1 ------- null}
r -t 0.53096 -s 4 -d 0 -p ack -e 40 -c 1 -i 5 -a 1 -x {4.0 2.0 0 ------- null}
+ -t 0.53096 -s 0 -d 2 -p ack -e 40 -c 1 -i 5 -a 1 -x {4.0 2.0 0 ------- null}
- -t 0.53096 -s 0 -d 2 -p ack -e 40 -c 1 -i 5 -a 1 -x {4.0 2.0 0 ------- null}
h -t 0.53096 -s 0 -d 2 -p ack -e 40 -c 1 -i 5 -a 1 -x {4.0 2.0 -1 ------- null}
r -t 0.53096 -s 5 -d 0 -p ack -e 40 -c 2 -i 6 -a 2 -x {5.0 3.1 0 ------- null}
+ -t 0.53096 -s 0 -d 3 -p ack -e 40 -c 2 -i 6 -a 2 -x {5.0 3.1 0 ------- null}
- -t 0.53096 -s 0 -d 3 -p ack -e 40 -c 2 -i 6 -a 2 -x {5.0 3.1 0 ------- null}
h -t 0.53096 -s 0 -d 3 -p ack -e 40 -c 2 -i 6 -a 2 -x {5.0 3.1 -1 ------- null}
r -t 0.53128 -s 2 -d 0 -p ack -e 40 -c 3 -i 7 -a 3 -x {2.1 1.1 0 ------- null}
+ -t 0.53128 -s 0 -d 1 -p ack -e 40 -c 3 -i 7 -a 3 -x {2.1 1.1 0 ------- null}
- -t 0.53128 -s 0 -d 1 -p ack -e 40 -c 3 -i 7 -a 3 -x {2.1 1.1 0 ------- null}
h -t 0.53128 -s 0 -d 1 -p ack -e 40 -c 3 -i 7 -a 3 -x {2.1 1.1 -1 ------- null}
r -t 0.54128 -s 0 -d 1 -p ack -e 40 -c 0 -i 4 -a 0 -x {3.0 1.0 0 ------- null}
+ -t 0.54128 -s 1 -d 0 -p tcp -e 1040 -c 0 -i 8 -a 0 -x {1.0 3.0 1 ------- null}
- -t 0.54128 -s 1 -d 0 -p tcp -e 1040 -c 0 -i 8 -a 0 -x {1.0 3.0 1 ------- null}
h -t 0.54128 -s 1 -d 0 -p tcp -e 1040 -c 0 -i 8 -a 0 -x {1.0 3.0 -1 ------- null}
+ -t 0.54128 -s 1 -d 0 -p tcp -e 1040 -c 0 -i 9 -a 0 -x {1.0 3.0 2 ------- null}
r -t 0.54128 -s 0 -d 2 -p ack -e 40 -c 1 -i 5 -a 1 -x {4.0 2.0 0 ------- null}
+ -t 0.54128 -s 2 -d 0 -p tcp -e 1040 -c 1 -i 10 -a 1 -x {2.0 4.0 1 ------- null}
- -t 0.54128 -s 2 -d 0 -p tcp -e 1040 -c 1 -i 10 -a 1 -x {2.0 4.0 1 ------- null}
h -t 0.54128 -s 2 -d 0 -p tcp -e 1040 -c 1 -i 10 -a 1 -x {2.0 4.0 -1 ------- null}
+ -t 0.54128 -s 2 -d 0 -p tcp -e 1040 -c 1 -i 11 -a 1 -x {2.0 4.0 2 ------- null}
r -t 0.54128 -s 0 -d 3 -p ack -e 40 -c 2 -i 6 -a 2 -x {5.0 3.1 0 ------- null}
+ -t 0.54128 -s 3 -d 0 -p tcp -e 1040 -c 2 -i 12 -a 2 -x {3.1 5.0 1 ------- null}
- -t 0.54128 -s 3 -d 0 -p tcp -e 1040 -c 2 -i 12 -a 2 -x {3.1 5.0 1 ------- null}
h -t 0.54128 -s 3 -d 0 -p tcp -e 1040 -c 2 -i 12 -a 2 -x {3.1 5.0 -1 ------- null}
+ -t 0.54128 -s 3 -d 0 -p tcp -e 1040 -c 2 -i 13 -a 2 -x {3.1 5.0 2 ------- null}
r -t 0.5416 -s 0 -d 1 -p ack -e 40 -c 3 -i 7 -a 3 -x {2.1 1.1 0 ------- null}
+ -t 0.5416 -s 1 -d 0 -p tcp -e 1040 -c 3 -i 14 -a 3 -x {1.1 2.1 1 ------- null}
+ -t 0.5416 -s 1 -d 0 -p tcp -e 1040 -c 3 -i 15 -a 3 -x {1.1 2.1 2 ------- null}
- -t 0.5496 -s 1 -d 0 -p tcp -e 1040 -c 0 -i 9 -a 0 -x {1.0 3.0 2 ------- null}
h -t 0.5496 -s 1 -d 0 -p tcp -e 1040 -c 0 -i 9 -a 0 -x {1.0 3.0 -1 ------- null}
- -t 0.5496 -s 2 -d 0 -p tcp -e 1040 -c 1 -i 11 -a 1 -x {2.0 4.0 2 ------- null}
h -t 0.5496 -s 2 -d 0 -p tcp -e 1040 -c 1 -i 11 -a 1 -x {2.0 4.0 -1 ------- null}
- -t 0.5496 -s 3 -d 0 -p tcp -e 1040 -c 2 -i 13 -a 2 -x {3.1 5.0 2 ------- null}
h -t 0.5496 -s 3 -d 0 -p tcp -e 1040 -c 2 -i 13 -a 2 -x {3.1 5.0 -1 ------- null}
- -t 0.55792 -s 1 -d 0 -p tcp -e 1040 -c 3 -i 14 -a 3 -x {1.1 2.1 1 ------- null}
h -t 0.55792 -s 1 -d 0 -p tcp -e 1040 -c 3 -i 14 -a 3 -x {1.1 2.1 -1 ------- null}
r -t 0.5596 -s 1 -d 0 -p tcp -e 1040 -c 0 -i 8 -a 0 -x {1.0 3.0 1 ------- null}
+ -t 0.5596 -s 0 -d 3 -p tcp -e 1040 -c 0 -i 8 -a 0 -x {1.0 3.0 1 ------- null}
- -t 0.5596 -s 0 -d 3 -p tcp -e 1040 -c 0 -i 8 -a 0 -x {1.0 3.0 1 ------- null}
h -t 0.5596 -s 0 -d 3 -p tcp -e 1040 -c 0 -i 8 -a 0 -x {1.0 3.0 -1 ------- null}
r -t 0.5596 -s 2 -d 0 -p tcp -e 1040 -c 1 -i 10 -a 1 -x {2.0 4.0 1 ------- null}
+ -t 0.5596 -s 0 -d 4 -p tcp -e 1040 -c 1 -i 10 -a 1 -x {2.0 4.0 1 ------- null}
- -t 0.5596 -s 0 -d 4 -p tcp -e 1040 -c 1 -i 10 -a 1 -x {2.0 4.0 1 ------- null}
h -t 0.5596 -s 0 -d 4 -p tcp -e 1040 -c 1 -i 10 -a 1 -x {2.0 4.0 -1 ------- null}
r -t 0.5596 -s 3 -d 0 -p tcp -e 1040 -c 2 -i 12 -a 2 -x {3.1 5.0 1 ------- null}
+ -t 0.5596 -s 0 -d 5 -p tcp -e 1040 -c 2 -i 12 -a 2 -x {3.1 5.0 1 ------- null}
- -t 0.5596 -s 0 -d 5 -p tcp -e 1040 -c 2 -i 12 -a 2 -x {3.1 5.0 1 ------- null}
h -t 0.5596 -s 0 -d 5 -p tcp -e 1040 -c 2 -i 12 -a 2 -x {3.1 5.0 -1 ------- null}
- -t 0.56624 -s 1 -d 0 -p tcp -e 1040 -c 3 -i 15 -a 3 -x {1.1 2.1 2 ------- null}
h -t 0.56624 -s 1 -d 0 -p tcp -e 1040 -c 3 -i 15 -a 3 -x {1.1 2.1 -1 ------- null}
r -t 0.56792 -s 1 -d 0 -p tcp -e 1040 -c 0 -i 9 -a 0 -x {1.0 3.0 2 ------- null}
+ -t 0.56792 -s 0 -d 3 -p tcp -e 1040 -c 0 -i 9 -a 0 -x {1.0 3.0 2 ------- null}
r -t 0.56792 -s 2 -d 0 -p tcp -e 1040 -c 1 -i 11 -a 1 -x {2.0 4.0 2 ------- null}
+ -t 0.56792 -s 0 -d 4 -p tcp -e 1040 -c 1 -i 11 -a 1 -x {2.0 4.0 2 ------- null}
r -t 0.56792 -s 3 -d 0 -p tcp -e 1040 -c 2 -i 13 -a 2 -x {3.1 5.0 2 ------- null}
+ -t 0.56792 -s 0 -d 5 -p tcp -e 1040 -c 2 -i 13 -a 2 -x {3.1 5.0 2 ------- null}
- -t 0.56792 -s 0 -d 3 -p tcp -e 1040 -c 0 -i 9 -a 0 -x {1.0 3.0 2 ------- null}
h -t 0.56792 -s 0 -d 3 -p tcp -e 1040 -c 0 -i 9 -a 0 -x {1.0 3.0 -1 ------- null}
- -t 0.56792 -s 0 -d 4 -p tcp -e 1040 -c 1 -i 11 -a 1 -x {2.0 4.0 2 ------- null}
h -t 0.56792 -s 0 -d 4 -p tcp -e 1040 -c 1 -i 11 -a 1 -x {2.0 4.0 -1 ------- null}
- -t 0.56792 -s 0 -d 5 -p tcp -e 1040 -c 2 -i 13 -a 2 -x {3.1 5.0 2 ------- null}
h -t 0.56792 -s 0 -d 5 -p tcp -e 1040 -c 2 -i 13 -a 2 -x {3.1 5.0 -1 ------- null}
r -t 0.57624 -s 1 -d 0 -p tcp -e 1040 -c 3 -i 14 -a 3 -x {1.1 2.1 1 ------- null}
+ -t 0.57624 -s 0 -d 2 -p tcp -e 1040 -c 3 -i 14 -a 3 -x {1.1 2.1 1 ------- null}
- -t 0.57624 -s 0 -d 2 -p tcp -e 1040 -c 3 -i 14 -a 3 -x {1.1 2.1 1 ------- null}
h -t 0.57624 -s 0 -d 2 -p tcp -e 1040 -c 3 -i 14 -a 3 -x {1.1 2.1 -1 ------- null}
r -t 0.57792 -s 0 -d 3 -p tcp -e 1040 -c 0 -i 8 -a 0 -x {1.0 3.0 1 ------- null}
r -t 0.57792 -s 0 -d 4 -p tcp -e 1040 -c 1 -i 10 -a 1 -x {2.0 4.0 1 ------- null}
r -t 0.57792 -s 0 -d 5 -p tcp -e 1040 -c 2 -i 12 -a 2 -x {3.1 5.0 1 ------- null}
r -t 0.58456 -s 1 -d 0 -p tcp -e 1040 -c 3 -i 15 -a 3 -x {1.1 2.1 2 ------- null}
+ -t 0.58456 -s 0 -d 2 -p tcp -e 1040 -c 3 -i 15 -a 3 -x {1.1 2.1 2 ------- null}
- -t 0.58456 -s 0 -d 2 -p tcp -e 1040 -c 3 -i 15 -a 3 -x {1.1 2.1 2 ------- null}
h -t 0.58456 -s 0 -d 2 -p tcp -e 1040 -c 3 -i 15 -a 3 -x {1.1 2.1 -1 ------- null}
r -t 0.58624 -s 0 -d 3 -p tcp -e 1040 -c 0 -i 9 -a 0 -x {1.0 3.0 2 ------- null}
+ -t 0.58624 -s 3 -d 0 -p ack -e 40 -c 0 -i 16 -a 0 -x {3.0 1.0 2 ------- null}
- -t 0.58624 -s 3 -d 0 -p ack -e 40 -c 0 -i 16 -a 0 -x {3.0 1.0 2 ------- null}
h -t 0.58624 -s 3 -d 0 -p ack -e 40 -c 0 -i 16 -a 0 -x {3.0 1.0 -1 ------- null}
r -t 0.58624 -s 0 -d 4 -p tcp -e 1040 -c 1 -i 11 -a 1 -x {2.0 4.0 2 ------- null}
+ -t 0.58624 -s 4 -d 0 -p ack -e 40 -c 1 -i 17 -a 1 -x {4.0 2.0 2 ------- null}
- -t 0.58624 -s 4 -d 0 -p ack -e 40 -c 1 -i 17 -a 1 -x {4.0 2.0 2 ------- null}
h -t 0.58624 -s 4 -d 0 -p ack -e 40 -c 1 -i 17 -a 1 -x {4.0 2.0 -1 ------- null}
r -t 0.58624 -s 0 -d 5 -p tcp -e 1040 -c 2 -i 13 -a 2 -x {3.1 5.0 2 ------- null}
+ -t 0.58624 -s 5 -d 0 -p ack -e 40 -c 2 -i 18 -a 2 -x {5.0 3.1 2 ------- null}
- -t 0.58624 -s 5 -d 0 -p ack -e 40 -c 2 -i 18 -a 2 -x {5.0 3.1 2 ------- null}
h -t 0.58624 -s 5 -d 0 -p ack -e 40 -c 2 -i 18 -a 2 -x {5.0 3.1 -1 ------- null}
r -t 0.59456 -s 0 -d 2 -p tcp -e 1040 -c 3 -i 14 -a 3 -x {1.1 2.1 1 ------- null}
r -t 0.59656 -s 3 -d 0 -p ack -e 40 -c 0 -i 16 -a 0 -x {3.0 1.0 2 ------- null}
+ -t 0.59656 -s 0 -d 1 -p ack -e 40 -c 0 -i 16 -a 0 -x {3.0 1.0 2 ------- null}
- -t 0.59656 -s 0 -d 1 -p ack -e 40 -c 0 -i 16 -a 0 -x {3.0 1.0 2 ------- null}
h -t 0.59656 -s 0 -d 1 -p ack -e 40 -c 0 -i 16 -a 0 -x {3.0 1.0 -1 ------- null}
r -t 0.59656 -s 4 -d 0 -p ack -e 40 -c 1 -i 17 -a 1 -x {4.0 2.0 2 ------- null}
+ -t 0.59656 -s 0 -d 2 -p ack -e 40 -c 1 -i 17 -a 1 -x {4.0 2.0 2 ------- null}
- -t 0.59656 -s 0 -d 2 -p ack -e 40 -c 1 -i 17 -a 1 -x {4.0 2.0 2 ------- null}
h -t 0.59656 -s 0 -d 2 -p ack -e 40 -c 1 -i 17 -a 1 -x {4.0 2.0 -1 ------- null}
r -t 0.59656 -s 5 -d 0 -p ack -e 40 -c 2 -i 18 -a 2 -x {5.0 3.1 2 ------- null}
+ -t 0.59656 -s 0 -d 3 -p ack -e 40 -c 2 -i 18 -a 2 -x {5.0 3.1 2 ------- null}
- -t 0.59656 -s 0 -d 3 -p ack -e 40 -c 2 -i 18 -a 2 -x {5.0 3.1 2 ------- null}
h -t 0.59656 -s 0 -d 3 -p ack -e 40 -c 2 -i 18 -a 2 -x {5.0 3.1 -1 ------- null}
r -t 0.60288 -s 0 -d 2 -p tcp -e 1040 -c 3 -i 15 -a 3 -x {1.1 2.1 2 ------- null}
+ -t 0.60288 -s 2 -d 0 -p ack -e 40 -c 3 -i 19 -a 3 -x {2.1 1.1 2 ------- null}
- -t 0.60288 -s 2 -d 0 -p ack -e 40 -c 3 -i 19 -a 3 -x {2.1 1.1 2 ------- null}
h -t 0.60288 -s 2 -d 0 -p ack -e 40 -c 3 -i 19 -a 3 -x {2.1 1.1 -1 ------- null}
r -t 0.60688 -s 0 -d 1 -p ack -e 40 -c 0 -i 16 -a 0 -x {3.0 1.0 2 ------- null}
+ -t 0.60688 -s 1 -d 0 -p tcp -e 1040 -c 0 -i 20 -a 0 -x {1.0 3.0 3 ------- null}
- -t 0.60688 -s 1 -d 0 -p tcp -e 1040 -c 0 -i 20 -a 0 -x {1.0 3.0 3 ------- null}
h -t 0.60688 -s 1 -d 0 -p tcp -e 1040 -c 0 -i 20 -a 0 -x {1.0 3.0 -1 ------- null}
+ -t 0.60688 -s 1 -d 0 -p tcp -e 1040 -c 0 -i 21 -a 0 -x {1.0 3.0 4 ------- null}
+ -t 0.60688 -s 1 -d 0 -p tcp -e 1040 -c 0 -i 22 -a 0 -x {1.0 3.0 5 ------- null}
r -t 0.60688 -s 0 -d 2 -p ack -e 40 -c 1 -i 17 -a 1 -x {4.0 2.0 2 ------- null}
+ -t 0.60688 -s 2 -d 0 -p tcp -e 1040 -c 1 -i 23 -a 1 -x {2.0 4.0 3 ------- null}
- -t 0.60688 -s 2 -d 0 -p tcp -e 1040 -c 1 -i 23 -a 1 -x {2.0 4.0 3 ------- null}
h -t 0.60688 -s 2 -d 0 -p tcp -e 1040 -c 1 -i 23 -a 1 -x {2.0 4.0 -1 ------- null}
+ -t 0.60688 -s 2 -d 0 -p tcp -e 1040 -c 1 -i 24 -a 1 -x {2.0 4.0 4 ------- null}
+ -t 0.60688 -s 2 -d 0 -p tcp -e 1040 -c 1 -i 25 -a 1 -x {2.0 4.0 5 ------- null}
r -t 0.60688 -s 0 -d 3 -p ack -e 40 -c 2 -i 18 -a 2 -x {5.0 3.1 2 ------- null}
+ -t 0.60688 -s 3 -d 0 -p tcp -e 1040 -c 2 -i 26 -a 2 -x {3.1 5.0 3 ------- null}
- -t 0.60688 -s 3 -d 0 -p tcp -e 1040 -c 2 -i 26 -a 2 -x {3.1 5.0 3 ------- null}
h -t 0.60688 -s 3 -d 0 -p tcp -e 1040 -c 2 -i 26 -a 2 -x {3.1 5.0 -1 ------- null}
+ -t 0.60688 -s 3 -d 0 -p tcp -e 1040 -c 2 -i 27 -a 2 -x {3.1 5.0 4 ------- null}
+ -t 0.60688 -s 3 -d 0 -p tcp -e 1040 -c 2 -i 28 -a 2 -x {3.1 5.0 5 ------- null}
r -t 0.6132 -s 2 -d 0 -p ack -e 40 -c 3 -i 19 -a 3 -x {2.1 1.1 2 ------- null}
+ -t 0.6132 -s 0 -d 1 -p ack -e 40 -c 3 -i 19 -a 3 -x {2.1 1.1 2 ------- null}
- -t 0.6132 -s 0 -d 1 -p ack -e 40 -c 3 -i 19 -a 3 -x {2.1 1.1 2 ------- null}
h -t 0.6132 -s 0 -d 1 -p ack -e 40 -c 3 -i 19 -a 3 -x {2.1 1.1 -1 ------- null}
- -t 0.6152 -s 1 -d 0 -p tcp -e 1040 -c 0 -i 21 -a 0 -x {1.0 3.0 4 ------- null}
h -t 0.6152 -s 1 -d 0 -p tcp -e 1040 -c 0 -i 21 -a 0 -x {1.0 3.0 -1 ------- null}
- -t 0.6152 -s 2 -d 0 -p tcp -e 1040 -c 1 -i 24 -a 1 -x {2.0 4.0 4 ------- null}
h -t 0.6152 -s 2 -d 0 -p tcp -e 1040 -c 1 -i 24 -a 1 -x {2.0 4.0 -1 ------- null}
- -t 0.6152 -s 3 -d 0 -p tcp -e 1040 -c 2 -i 27 -a 2 -x {3.1 5.0 4 ------- null}
h -t 0.6152 -s 3 -d 0 -p tcp -e 1040 -c 2 -i 27 -a 2 -x {3.1 5.0 -1 ------- null}
r -t 0.62352 -s 0 -d 1 -p ack -e 40 -c 3 -i 19 -a 3 -x {2.1 1.1 2 ------- null}
+ -t 0.62352 -s 1 -d 0 -p tcp -e 1040 -c 3 -i 29 -a 3 -x {1.1 2.1 3 ------- null}
+ -t 0.62352 -s 1 -d 0 -p tcp -e 1040 -c 3 -i 30 -a 3 -x {1.1 2.1 4 ------- null}
+ -t 0.62352 -s 1 -d 0 -p tcp -e 1040 -c 3 -i 31 -a 3 -x {1.1 2.1 5 ------- null}
- -t 0.62352 -s 1 -d 0 -p tcp -e 1040 -c 0 -i 22 -a 0 -x {1.0 3.0 5 ------- null}
h -t 0.62352 -s 1 -d 0 -p tcp -e 1040 -c 0 -i 22 -a 0 -x {1.0 3.0 -1 ------- null}
- -t 0.62352 -s 2 -d 0 -p tcp -e 1040 -c 1 -i 25 -a 1 -x {2.0 4.0 5 ------- null}
h -t 0.62352 -s 2 -d 0 -p tcp -e 1040 -c 1 -i 25 -a 1 -x {2.0 4.0 -1 ------- null}
- -t 0.62352 -s 3 -d 0 -p tcp -e 1040 -c 2 -i 28 -a 2 -x {3.1 5.0 5 ------- null}
h -t 0.62352 -s 3 -d 0 -p tcp -e 1040 -c 2 -i 28 -a 2 -x {3.1 5.0 -1 ------- null}
r -t 0.6252 -s 1 -d 0 -p tcp -e 1040 -c 0 -i 20 -a 0 -x {1.0 3.0 3 ------- null}
+ -t 0.6252 -s 0 -d 3 -p tcp -e 1040 -c 0 -i 20 -a 0 -x {1.0 3.0 3 ------- null}
- -t 0.6252 -s 0 -d 3 -p tcp -e 1040 -c 0 -i 20 -a 0 -x {1.0 3.0 3 ------- null}
h -t 0.6252 -s 0 -d 3 -p tcp -e 1040 -c 0 -i 20 -a 0 -x {1.0 3.0 -1 ------- null}
r -t 0.6252 -s 2 -d 0 -p tcp -e 1040 -c 1 -i 23 -a 1 -x {2.0 4.0 3 ------- null}
+ -t 0.6252 -s 0 -d 4 -p tcp -e 1040 -c 1 -i 23 -a 1 -x {2.0 4.0 3 ------- null}
- -t 0.6252 -s 0 -d 4 -p tcp -e 1040 -c 1 -i 23 -a 1 -x {2.0 4.0 3 ------- null}
h -t 0.6252 -s 0 -d 4 -p tcp -e 1040 -c 1 -i 23 -a 1 -x {2.0 4.0 -1 ------- null}
r -t 0.6252 -s 3 -d 0 -p tcp -e 1040 -c 2 -i 26 -a 2 -x {3.1 5.0 3 ------- null}
+ -t 0.6252 -s 0 -d 5 -p tcp -e 1040 -c 2 -i 26 -a 2 -x {3.1 5.0 3 ------- null}
- -t 0.6252 -s 0 -d 5 -p tcp -e 1040 -c 2 -i 26 -a 2 -x {3.1 5.0 3 ------- null}
h -t 0.6252 -s 0 -d 5 -p tcp -e 1040 -c 2 -i 26 -a 2 -x {3.1 5.0 -1 ------- null}
- -t 0.63184 -s 1 -d 0 -p tcp -e 1040 -c 3 -i 29 -a 3 -x {1.1 2.1 3 ------- null}
h -t 0.63184 -s 1 -d 0 -p tcp -e 1040 -c 3 -i 29 -a 3 -x {1.1 2.1 -1 ------- null}
r -t 0.63352 -s 1 -d 0 -p tcp -e 1040 -c 0 -i 21 -a 0 -x {1.0 3.0 4 ------- null}
+ -t 0.63352 -s 0 -d 3 -p tcp -e 1040 -c 0 -i 21 -a 0 -x {1.0 3.0 4 ------- null}
r -t 0.63352 -s 2 -d 0 -p tcp -e 1040 -c 1 -i 24 -a 1 -x {2.0 4.0 4 ------- null}
+ -t 0.63352 -s 0 -d 4 -p tcp -e 1040 -c 1 -i 24 -a 1 -x {2.0 4.0 4 ------- null}
r -t 0.63352 -s 3 -d 0 -p tcp -e 1040 -c 2 -i 27 -a 2 -x {3.1 5.0 4 ------- null}
+ -t 0.63352 -s 0 -d 5 -p tcp -e 1040 -c 2 -i 27 -a 2 -x {3.1 5.0 4 ------- null}
- -t 0.63352 -s 0 -d 3 -p tcp -e 1040 -c 0 -i 21 -a 0 -x {1.0 3.0 4 ------- null}
h -t 0.63352 -s 0 -d 3 -p tcp -e 1040 -c 0 -i 21 -a 0 -x {1.0 3.0 -1 ------- null}
- -t 0.63352 -s 0 -d 4 -p tcp -e 1040 -c 1 -i 24 -a 1 -x {2.0 4.0 4 ------- null}
h -t 0.63352 -s 0 -d 4 -p tcp -e 1040 -c 1 -i 24 -a 1 -x {2.0 4.0 -1 ------- null}
- -t 0.63352 -s 0 -d 5 -p tcp -e 1040 -c 2 -i 27 -a 2 -x {3.1 5.0 4 ------- null}
h -t 0.63352 -s 0 -d 5 -p tcp -e 1040 -c 2 -i 27 -a 2 -x {3.1 5.0 -1 ------- null}
- -t 0.64016 -s 1 -d 0 -p tcp -e 1040 -c 3 -i 30 -a 3 -x {1.1 2.1 4 ------- null}
h -t 0.64016 -s 1 -d 0 -p tcp -e 1040 -c 3 -i 30 -a 3 -x {1.1 2.1 -1 ------- null}
r -t 0.64184 -s 1 -d 0 -p tcp -e 1040 -c 0 -i 22 -a 0 -x {1.0 3.0 5 ------- null}
+ -t 0.64184 -s 0 -d 3 -p tcp -e 1040 -c 0 -i 22 -a 0 -x {1.0 3.0 5 ------- null}
r -t 0.64184 -s 2 -d 0 -p tcp -e 1040 -c 1 -i 25 -a 1 -x {2.0 4.0 5 ------- null}
+ -t 0.64184 -s 0 -d 4 -p tcp -e 1040 -c 1 -i 25 -a 1 -x {2.0 4.0 5 ------- null}
r -t 0.64184 -s 3 -d 0 -p tcp -e 1040 -c 2 -i 28 -a 2 -x {3.1 5.0 5 ------- null}
+ -t 0.64184 -s 0 -d 5 -p tcp -e 1040 -c 2 -i 28 -a 2 -x {3.1 5.0 5 ------- null}
- -t 0.64184 -s 0 -d 3 -p tcp -e 1040 -c 0 -i 22 -a 0 -x {1.0 3.0 5 ------- null}
h -t 0.64184 -s 0 -d 3 -p tcp -e 1040 -c 0 -i 22 -a 0 -x {1.0 3.0 -1 ------- null}
- -t 0.64184 -s 0 -d 4 -p tcp -e 1040 -c 1 -i 25 -a 1 -x {2.0 4.0 5 ------- null}
h -t 0.64184 -s 0 -d 4 -p tcp -e 1040 -c 1 -i 25 -a 1 -x {2.0 4.0 -1 ------- null}
- -t 0.64184 -s 0 -d 5 -p tcp -e 1040 -c 2 -i 28 -a 2 -x {3.1 5.0 5 ------- null}
h -t 0.64184 -s 0 -d 5 -p tcp -e 1040 -c 2 -i 28 -a 2 -x {3.1 5.0 -1 ------- null}
r -t 0.64352 -s 0 -d 3 -p tcp -e 1040 -c 0 -i 20 -a 0 -x {1.0 3.0 3 ------- null}
r -t 0.64352 -s 0 -d 4 -p tcp -e 1040 -c 1 -i 23 -a 1 -x {2.0 4.0 3 ------- null}
r -t 0.64352 -s 0 -d 5 -p tcp -e 1040 -c 2 -i 26 -a 2 -x {3.1 5.0 3 ------- null}
- -t 0.64848 -s 1 -d 0 -p tcp -e 1040 -c 3 -i 31 -a 3 -x {1.1 2.1 5 ------- null}
h -t 0.64848 -s 1 -d 0 -p tcp -e 1040 -c 3 -i 31 -a 3 -x {1.1 2.1 -1 ------- null}
r -t 0.65016 -s 1 -d 0 -p tcp -e 1040 -c 3 -i 29 -a 3 -x {1.1 2.1 3 ------- null}
+ -t 0.65016 -s 0 -d 2 -p tcp -e 1040 -c 3 -i 29 -a 3 -x {1.1 2.1 3 ------- null}
- -t 0.65016 -s 0 -d 2 -p tcp -e 1040 -c 3 -i 29 -a 3 -x {1.1 2.1 3 ------- null}
h -t 0.65016 -s 0 -d 2 -p tcp -e 1040 -c 3 -i 29 -a 3 -x {1.1 2.1 -1 ------- null}
r -t 0.65184 -s 0 -d 3 -p tcp -e 1040 -c 0 -i 21 -a 0 -x {1.0 3.0 4 ------- null}
+ -t 0.65184 -s 3 -d 0 -p ack -e 40 -c 0 -i 32 -a 0 -x {3.0 1.0 4 ------- null}
- -t 0.65184 -s 3 -d 0 -p ack -e 40 -c 0 -i 32 -a 0 -x {3.0 1.0 4 ------- null}
h -t 0.65184 -s 3 -d 0 -p ack -e 40 -c 0 -i 32 -a 0 -x {3.0 1.0 -1 ------- null}
r -t 0.65184 -s 0 -d 4 -p tcp -e 1040 -c 1 -i 24 -a 1 -x {2.0 4.0 4 ------- null}
+ -t 0.65184 -s 4 -d 0 -p ack -e 40 -c 1 -i 33 -a 1 -x {4.0 2.0 4 ------- null}
- -t 0.65184 -s 4 -d 0 -p ack -e 40 -c 1 -i 33 -a 1 -x {4.0 2.0 4 ------- null}
h -t 0.65184 -s 4 -d 0 -p ack -e 40 -c 1 -i 33 -a 1 -x {4.0 2.0 -1 ------- null}
r -t 0.65184 -s 0 -d 5 -p tcp -e 1040 -c 2 -i 27 -a 2 -x {3.1 5.0 4 ------- null}
+ -t 0.65184 -s 5 -d 0 -p ack -e 40 -c 2 -i 34 -a 2 -x {5.0 3.1 4 ------- null}
- -t 0.65184 -s 5 -d 0 -p ack -e 40 -c 2 -i 34 -a 2 -x {5.0 3.1 4 ------- null}
h -t 0.65184 -s 5 -d 0 -p ack -e 40 -c 2 -i 34 -a 2 -x {5.0 3.1 -1 ------- null}
r -t 0.65848 -s 1 -d 0 -p tcp -e 1040 -c 3 -i 30 -a 3 -x {1.1 2.1 4 ------- null}
+ -t 0.65848 -s 0 -d 2 -p tcp -e 1040 -c 3 -i 30 -a 3 -x {1.1 2.1 4 ------- null}
- -t 0.65848 -s 0 -d 2 -p tcp -e 1040 -c 3 -i 30 -a 3 -x {1.1 2.1 4 ------- null}
h -t 0.65848 -s 0 -d 2 -p tcp -e 1040 -c 3 -i 30 -a 3 -x {1.1 2.1 -1 ------- null}
r -t 0.66016 -s 0 -d 3 -p tcp -e 1040 -c 0 -i 22 -a 0 -x {1.0 3.0 5 ------- null}
r -t 0.66016 -s 0 -d 4 -p tcp -e 1040 -c 1 -i 25 -a 1 -x {2.0 4.0 5 ------- null}
r -t 0.66016 -s 0 -d 5 -p tcp -e 1040 -c 2 -i 28 -a 2 -x {3.1 5.0 5 ------- null}
r -t 0.66216 -s 3 -d 0 -p ack -e 40 -c 0 -i 32 -a 0 -x {3.0 1.0 4 ------- null}
+ -t 0.66216 -s 0 -d 1 -p ack -e 40 -c 0 -i 32 -a 0 -x {3.0 1.0 4 ------- null}
- -t 0.66216 -s 0 -d 1 -p ack -e 40 -c 0 -i 32 -a 0 -x {3.0 1.0 4 ------- null}
h -t 0.66216 -s 0 -d 1 -p ack -e 40 -c 0 -i 32 -a 0 -x {3.0 1.0 -1 ------- null}
r -t 0.66216 -s 4 -d 0 -p ack -e 40 -c 1 -i 33 -a 1 -x {4.0 2.0 4 ------- null}
+ -t 0.66216 -s 0 -d 2 -p ack -e 40 -c 1 -i 33 -a 1 -x {4.0 2.0 4 ------- null}
r -t 0.66216 -s 5 -d 0 -p ack -e 40 -c 2 -i 34 -a 2 -x {5.0 3.1 4 ------- null}
+ -t 0.66216 -s 0 -d 3 -p ack -e 40 -c 2 -i 34 -a 2 -x {5.0 3.1 4 ------- null}
- -t 0.66216 -s 0 -d 3 -p ack -e 40 -c 2 -i 34 -a 2 -x {5.0 3.1 4 ------- null}
h -t 0.66216 -s 0 -d 3 -p ack -e 40 -c 2 -i 34 -a 2 -x {5.0 3.1 -1 ------- null}
r -t 0.6668 -s 1 -d 0 -p tcp -e 1040 -c 3 -i 31 -a 3 -x {1.1 2.1 5 ------- null}
+ -t 0.6668 -s 0 -d 2 -p tcp -e 1040 -c 3 -i 31 -a 3 -x {1.1 2.1 5 ------- null}
- -t 0.6668 -s 0 -d 2 -p ack -e 40 -c 1 -i 33 -a 1 -x {4.0 2.0 4 ------- null}
h -t 0.6668 -s 0 -d 2 -p ack -e 40 -c 1 -i 33 -a 1 -x {4.0 2.0 -1 ------- null}
- -t 0.66712 -s 0 -d 2 -p tcp -e 1040 -c 3 -i 31 -a 3 -x {1.1 2.1 5 ------- null}
h -t 0.66712 -s 0 -d 2 -p tcp -e 1040 -c 3 -i 31 -a 3 -x {1.1 2.1 -1 ------- null}
r -t 0.66848 -s 0 -d 2 -p tcp -e 1040 -c 3 -i 29 -a 3 -x {1.1 2.1 3 ------- null}
r -t 0.67248 -s 0 -d 1 -p ack -e 40 -c 0 -i 32 -a 0 -x {3.0 1.0 4 ------- null}
+ -t 0.67248 -s 1 -d 0 -p tcp -e 1040 -c 0 -i 35 -a 0 -x {1.0 3.0 6 ------- null}
- -t 0.67248 -s 1 -d 0 -p tcp -e 1040 -c 0 -i 35 -a 0 -x {1.0 3.0 6 ------- null}
h -t 0.67248 -s 1 -d 0 -p tcp -e 1040 -c 0 -i 35 -a 0 -x {1.0 3.0 -1 ------- null}
+ -t 0.67248 -s 1 -d 0 -p tcp -e 1040 -c 0 -i 36 -a 0 -x {1.0 3.0 7 ------- null}
+ -t 0.67248 -s 1 -d 0 -p tcp -e 1040 -c 0 -i 37 -a 0 -x {1.0 3.0 8 ------- null}
r -t 0.67248 -s 0 -d 3 -p ack -e 40 -c 2 -i 34 -a 2 -x {5.0 3.1 4 ------- null}
+ -t 0.67248 -s 3 -d 0 -p tcp -e 1040 -c 2 -i 38 -a 2 -x {3.1 5.0 6 ------- null}
- -t 0.67248 -s 3 -d 0 -p tcp -e 1040 -c 2 -i 38 -a 2 -x {3.1 5.0 6 ------- null}
h -t 0.67248 -s 3 -d 0 -p tcp -e 1040 -c 2 -i 38 -a 2 -x {3.1 5.0 -1 ------- null}
+ -t 0.67248 -s 3 -d 0 -p tcp -e 1040 -c 2 -i 39 -a 2 -x {3.1 5.0 7 ------- null}
+ -t 0.67248 -s 3 -d 0 -p tcp -e 1040 -c 2 -i 40 -a 2 -x {3.1 5.0 8 ------- null}
r -t 0.6768 -s 0 -d 2 -p tcp -e 1040 -c 3 -i 30 -a 3 -x {1.1 2.1 4 ------- null}
+ -t 0.6768 -s 2 -d 0 -p ack -e 40 -c 3 -i 41 -a 3 -x {2.1 1.1 4 ------- null}
- -t 0.6768 -s 2 -d 0 -p ack -e 40 -c 3 -i 41 -a 3 -x {2.1 1.1 4 ------- null}
h -t 0.6768 -s 2 -d 0 -p ack -e 40 -c 3 -i 41 -a 3 -x {2.1 1.1 -1 ------- null}
r -t 0.67712 -s 0 -d 2 -p ack -e 40 -c 1 -i 33 -a 1 -x {4.0 2.0 4 ------- null}
+ -t 0.67712 -s 2 -d 0 -p tcp -e 1040 -c 1 -i 42 -a 1 -x {2.0 4.0 6 ------- null}
+ -t 0.67712 -s 2 -d 0 -p tcp -e 1040 -c 1 -i 43 -a 1 -x {2.0 4.0 7 ------- null}
+ -t 0.67712 -s 2 -d 0 -p tcp -e 1040 -c 1 -i 44 -a 1 -x {2.0 4.0 8 ------- null}
- -t 0.67712 -s 2 -d 0 -p tcp -e 1040 -c 1 -i 42 -a 1 -x {2.0 4.0 6 ------- null}
h -t 0.67712 -s 2 -d 0 -p tcp -e 1040 -c 1 -i 42 -a 1 -x {2.0 4.0 -1 ------- null}
- -t 0.6808 -s 1 -d 0 -p tcp -e 1040 -c 0 -i 36 -a 0 -x {1.0 3.0 7 ------- null}
h -t 0.6808 -s 1 -d 0 -p tcp -e 1040 -c 0 -i 36 -a 0 -x {1.0 3.0 -1 ------- null}
- -t 0.6808 -s 3 -d 0 -p tcp -e 1040 -c 2 -i 39 -a 2 -x {3.1 5.0 7 ------- null}
h -t 0.6808 -s 3 -d 0 -p tcp -e 1040 -c 2 -i 39 -a 2 -x {3.1 5.0 -1 ------- null}
r -t 0.68544 -s 0 -d 2 -p tcp -e 1040 -c 3 -i 31 -a 3 -x {1.1 2.1 5 ------- null}
- -t 0.68544 -s 2 -d 0 -p tcp -e 1040 -c 1 -i 43 -a 1 -x {2.0 4.0 7 ------- null}
h -t 0.68544 -s 2 -d 0 -p tcp -e 1040 -c 1 -i 43 -a 1 -x {2.0 4.0 -1 ------- null}
r -t 0.68712 -s 2 -d 0 -p ack -e 40 -c 3 -i 41 -a 3 -x {2.1 1.1 4 ------- null}
+ -t 0.68712 -s 0 -d 1 -p ack -e 40 -c 3 -i 41 -a 3 -x {2.1 1.1 4 ------- null}
- -t 0.68712 -s 0 -d 1 -p ack -e 40 -c 3 -i 41 -a 3 -x {2.1 1.1 4 ------- null}
h -t 0.68712 -s 0 -d 1 -p ack -e 40 -c 3 -i 41 -a 3 -x {2.1 1.1 -1 ------- null}
- -t 0.68912 -s 1 -d 0 -p tcp -e 1040 -c 0 -i 37 -a 0 -x {1.0 3.0 8 ------- null}
h -t 0.68912 -s 1 -d 0 -p tcp -e 1040 -c 0 -i 37 -a 0 -x {1.0 3.0 -1 ------- null}
- -t 0.68912 -s 3 -d 0 -p tcp -e 1040 -c 2 -i 40 -a 2 -x {3.1 5.0 8 ------- null}
h -t 0.68912 -s 3 -d 0 -p tcp -e 1040 -c 2 -i 40 -a 2 -x {3.1 5.0 -1 ------- null}
r -t 0.6908 -s 1 -d 0 -p tcp -e 1040 -c 0 -i 35 -a 0 -x {1.0 3.0 6 ------- null}
+ -t 0.6908 -s 0 -d 3 -p tcp -e 1040 -c 0 -i 35 -a 0 -x {1.0 3.0 6 ------- null}
- -t 0.6908 -s 0 -d 3 -p tcp -e 1040 -c 0 -i 35 -a 0 -x {1.0 3.0 6 ------- null}
h -t 0.6908 -s 0 -d 3 -p tcp -e 1040 -c 0 -i 35 -a 0 -x {1.0 3.0 -1 ------- null}
r -t 0.6908 -s 3 -d 0 -p tcp -e 1040 -c 2 -i 38 -a 2 -x {3.1 5.0 6 ------- null}
+ -t 0.6908 -s 0 -d 5 -p tcp -e 1040 -c 2 -i 38 -a 2 -x {3.1 5.0 6 ------- null}
- -t 0.6908 -s 0 -d 5 -p tcp -e 1040 -c 2 -i 38 -a 2 -x {3.1 5.0 6 ------- null}
h -t 0.6908 -s 0 -d 5 -p tcp -e 1040 -c 2 -i 38 -a 2 -x {3.1 5.0 -1 ------- null}
- -t 0.69376 -s 2 -d 0 -p tcp -e 1040 -c 1 -i 44 -a 1 -x {2.0 4.0 8 ------- null}
h -t 0.69376 -s 2 -d 0 -p tcp -e 1040 -c 1 -i 44 -a 1 -x {2.0 4.0 -1 ------- null}
r -t 0.69544 -s 2 -d 0 -p tcp -e 1040 -c 1 -i 42 -a 1 -x {2.0 4.0 6 ------- null}
+ -t 0.69544 -s 0 -d 4 -p tcp -e 1040 -c 1 -i 42 -a 1 -x {2.0 4.0 6 ------- null}
- -t 0.69544 -s 0 -d 4 -p tcp -e 1040 -c 1 -i 42 -a 1 -x {2.0 4.0 6 ------- null}
h -t 0.69544 -s 0 -d 4 -p tcp -e 1040 -c 1 -i 42 -a 1 -x {2.0 4.0 -1 ------- null}
r -t 0.69744 -s 0 -d 1 -p ack -e 40 -c 3 -i 41 -a 3 -x {2.1 1.1 4 ------- null}
+ -t 0.69744 -s 1 -d 0 -p tcp -e 1040 -c 3 -i 45 -a 3 -x {1.1 2.1 6 ------- null}
+ -t 0.69744 -s 1 -d 0 -p tcp -e 1040 -c 3 -i 46 -a 3 -x {1.1 2.1 7 ------- null}
+ -t 0.69744 -s 1 -d 0 -p tcp -e 1040 -c 3 -i 47 -a 3 -x {1.1 2.1 8 ------- null}
- -t 0.69744 -s 1 -d 0 -p tcp -e 1040 -c 3 -i 45 -a 3 -x {1.1 2.1 6 ------- null}
h -t 0.69744 -s 1 -d 0 -p tcp -e 1040 -c 3 -i 45 -a 3 -x {1.1 2.1 -1 ------- null}
r -t 0.69912 -s 1 -d 0 -p tcp -e 1040 -c 0 -i 36 -a 0 -x {1.0 3.0 7 ------- null}
+ -t 0.69912 -s 0 -d 3 -p tcp -e 1040 -c 0 -i 36 -a 0 -x {1.0 3.0 7 ------- null}
r -t 0.69912 -s 3 -d 0 -p tcp -e 1040 -c 2 -i 39 -a 2 -x {3.1 5.0 7 ------- null}
+ -t 0.69912 -s 0 -d 5 -p tcp -e 1040 -c 2 -i 39 -a 2 -x {3.1 5.0 7 ------- null}
- -t 0.69912 -s 0 -d 3 -p tcp -e 1040 -c 0 -i 36 -a 0 -x {1.0 3.0 7 ------- null}
h -t 0.69912 -s 0 -d 3 -p tcp -e 1040 -c 0 -i 36 -a 0 -x {1.0 3.0 -1 ------- null}
- -t 0.69912 -s 0 -d 5 -p tcp -e 1040 -c 2 -i 39 -a 2 -x {3.1 5.0 7 ------- null}
h -t 0.69912 -s 0 -d 5 -p tcp -e 1040 -c 2 -i 39 -a 2 -x {3.1 5.0 -1 ------- null}
r -t 0.70376 -s 2 -d 0 -p tcp -e 1040 -c 1 -i 43 -a 1 -x {2.0 4.0 7 ------- null}
+ -t 0.70376 -s 0 -d 4 -p tcp -e 1040 -c 1 -i 43 -a 1 -x {2.0 4.0 7 ------- null}
- -t 0.70376 -s 0 -d 4 -p tcp -e 1040 -c 1 -i 43 -a 1 -x {2.0 4.0 7 ------- null}
h -t 0.70376 -s 0 -d 4 -p tcp -e 1040 -c 1 -i 43 -a 1 -x {2.0 4.0 -1 ------- null}
- -t 0.70576 -s 1 -d 0 -p tcp -e 1040 -c 3 -i 46 -a 3 -x {1.1 2.1 7 ------- null}
h -t 0.70576 -s 1 -d 0 -p tcp -e 1040 -c 3 -i 46 -a 3 -x {1.1 2.1 -1 ------- null}
r -t 0.70744 -s 1 -d 0 -p tcp -e 1040 -c 0 -i 37 -a 0 -x {1.0 3.0 8 ------- null}
+ -t 0.70744 -s 0 -d 3 -p tcp -e 1040 -c 0 -i 37 -a 0 -x {1.0 3.0 8 ------- null}
r -t 0.70744 -s 3 -d 0 -p tcp -e 1040 -c 2 -i 40 -a 2 -x {3.1 5.0 8 ------- null}
+ -t 0.70744 -s 0 -d 5 -p tcp -e 1040 -c 2 -i 40 -a 2 -x {3.1 5.0 8 ------- null}
- -t 0.70744 -s 0 -d 3 -p tcp -e 1040 -c 0 -i 37 -a 0 -x {1.0 3.0 8 ------- null}
h -t 0.70744 -s 0 -d 3 -p tcp -e 1040 -c 0 -i 37 -a 0 -x {1.0 3.0 -1 ------- null}
- -t 0.70744 -s 0 -d 5 -p tcp -e 1040 -c 2 -i 40 -a 2 -x {3.1 5.0 8 ------- null}
h -t 0.70744 -s 0 -d 5 -p tcp -e 1040 -c 2 -i 40 -a 2 -x {3.1 5.0 -1 ------- null}
r -t 0.70912 -s 0 -d 3 -p tcp -e 1040 -c 0 -i 35 -a 0 -x {1.0 3.0 6 ------- null}
+ -t 0.70912 -s 3 -d 0 -p ack -e 40 -c 0 -i 48 -a 0 -x {3.0 1.0 6 ------- null}
- -t 0.70912 -s 3 -d 0 -p ack -e 40 -c 0 -i 48 -a 0 -x {3.0 1.0 6 ------- null}
h -t 0.70912 -s 3 -d 0 -p ack -e 40 -c 0 -i 48 -a 0 -x {3.0 1.0 -1 ------- null}
r -t 0.70912 -s 0 -d 5 -p tcp -e 1040 -c 2 -i 38 -a 2 -x {3.1 5.0 6 ------- null}
+ -t 0.70912 -s 5 -d 0 -p ack -e 40 -c 2 -i 49 -a 2 -x {5.0 3.1 6 ------- null}