V -t * -v 1.0a5 -a 0
A -t * -n 1 -p 0 -o 0x7fffffff -c 30 -a 1
A -t * -h 1 -m 1073741823 -s 0
c -t * -i 4 -n yellow
c -t * -i 0 -n blue
c -t * -i 5 -n violet
c -t * -i 1 -n red
c -t * -i 2 -n cyan
c -t * -i 3 -n green
n -t * -a 0 -s 0 -S UP -v circle -c black -i black
n -t * -a 1 -s 1 -S UP -v circle -c black -i black
n -t * -a 2 -s 2 -S UP -v circle -c black -i black
n -t * -a 3 -s 3 -S UP -v circle -c black -i black
l -t * -s 0 -d 1 -S UP -r 1000000 -D 0.01 -c black -o right-up
l -t * -s 1 -d 2 -S UP -r 1000000 -D 0.01 -c black -o right-up
l -t * -s 2 -d 3 -S UP -r 1000000 -D 0.01 -c black -o right-up
l -t * -s 3 -d 0 -S UP -r 1000000 -D 0.01 -c black -o right-up
+ -t 0.000169788487334637 -s 0 -d 1 -p rtProtoDV -e 4 -c 0 -i 0 -a 0 -x {0.1 1.2 -1 ------- null}
- -t 0.000169788487334637 -s 0 -d 1 -p rtProtoDV -e 4 -c 0 -i 0 -a 0 -x {0.1 1.2 -1 ------- null}
h -t 0.000169788487334637 -s 0 -d 1 -p rtProtoDV -e 4 -c 0 -i 0 -a 0 -x {0.1 1.2 -1 ------- null}
+ -t 0.000169788487334637 -s 0 -d 3 -p rtProtoDV -e 4 -c 0 -i 1 -a 0 -x {0.1 3.1 -1 ------- null}
- -t 0.000169788487334637 -s 0 -d 3 -p rtProtoDV -e 4 -c 0 -i 1 -a 0 -x {0.1 3.1 -1 ------- null}
h -t 0.000169788487334637 -s 0 -d 3 -p rtProtoDV -e 4 -c 0 -i 1 -a 0 -x {0.1 3.1 -1 ------- null}
+ -t 0.00710233021858257 -s 2 -d 1 -p rtProtoDV -e 4 -c 0 -i 2 -a 0 -x {2.2 1.2 -1 ------- null}
- -t 0.00710233021858257 -s 2 -d 1 -p rtProtoDV -e 4 -c 0 -i 2 -a 0 -x {2.2 1.2 -1 ------- null}
h -t 0.00710233021858257 -s 2 -d 1 -p rtProtoDV -e 4 -c 0 -i 2 -a 0 -x {2.2 1.2 -1 ------- null}
+ -t 0.00710233021858257 -s 2 -d 3 -p rtProtoDV -e 4 -c 0 -i 3 -a 0 -x {2.2 3.1 -1 ------- null}
- -t 0.00710233021858257 -s 2 -d 3 -p rtProtoDV -e 4 -c 0 -i 3 -a 0 -x {2.2 3.1 -1 ------- null}
h -t 0.00710233021858257 -s 2 -d 3 -p rtProtoDV -e 4 -c 0 -i 3 -a 0 -x {2.2 3.1 -1 ------- null}
r -t 0.0102017884873346 -s 0 -d 1 -p rtProtoDV -e 4 -c 0 -i 0 -a 0 -x {0.1 1.2 -1 ------- null}
+ -t 0.0102017884873346 -s 1 -d 0 -p rtProtoDV -e 4 -c 0 -i 4 -a 0 -x {1.2 0.1 -1 ------- null}
- -t 0.0102017884873346 -s 1 -d 0 -p rtProtoDV -e 4 -c 0 -i 4 -a 0 -x {1.2 0.1 -1 ------- null}
h -t 0.0102017884873346 -s 1 -d 0 -p rtProtoDV -e 4 -c 0 -i 4 -a 0 -x {1.2 0.1 -1 ------- null}
+ -t 0.0102017884873346 -s 1 -d 2 -p rtProtoDV -e 4 -c 0 -i 5 -a 0 -x {1.2 2.2 -1 ------- null}
- -t 0.0102017884873346 -s 1 -d 2 -p rtProtoDV -e 4 -c 0 -i 5 -a 0 -x {1.2 2.2 -1 ------- null}
h -t 0.0102017884873346 -s 1 -d 2 -p rtProtoDV -e 4 -c 0 -i 5 -a 0 -x {1.2 2.2 -1 ------- null}
r -t 0.0102017884873346 -s 0 -d 3 -p rtProtoDV -e 4 -c 0 -i 1 -a 0 -x {0.1 3.1 -1 ------- null}
+ -t 0.0102017884873346 -s 3 -d 0 -p rtProtoDV -e 4 -c 0 -i 6 -a 0 -x {3.1 0.1 -1 ------- null}
- -t 0.0102017884873346 -s 3 -d 0 -p rtProtoDV -e 4 -c 0 -i 6 -a 0 -x {3.1 0.1 -1 ------- null}
h -t 0.0102017884873346 -s 3 -d 0 -p rtProtoDV -e 4 -c 0 -i 6 -a 0 -x {3.1 0.1 -1 ------- null}
+ -t 0.0102017884873346 -s 3 -d 2 -p rtProtoDV -e 4 -c 0 -i 7 -a 0 -x {3.1 2.2 -1 ------- null}
- -t 0.0102017884873346 -s 3 -d 2 -p rtProtoDV -e 4 -c 0 -i 7 -a 0 -x {3.1 2.2 -1 ------- null}
h -t 0.0102017884873346 -s 3 -d 2 -p rtProtoDV -e 4 -c 0 -i 7 -a 0 -x {3.1 2.2 -1 ------- null}
r -t 0.0171343302185826 -s 2 -d 1 -p rtProtoDV -e 4 -c 0 -i 2 -a 0 -x {2.2 1.2 -1 ------- null}
r -t 0.0171343302185826 -s 2 -d 3 -p rtProtoDV -e 4 -c 0 -i 3 -a 0 -x {2.2 3.1 -1 ------- null}
r -t 0.0202337884873346 -s 1 -d 0 -p rtProtoDV -e 4 -c 0 -i 4 -a 0 -x {1.2 0.1 -1 ------- null}
+ -t 0.0202337884873346 -s 0 -d 1 -p rtProtoDV -e 4 -c 0 -i 8 -a 0 -x {0.1 1.2 -1 ------- null}
- -t 0.0202337884873346 -s 0 -d 1 -p rtProtoDV -e 4 -c 0 -i 8 -a 0 -x {0.1 1.2 -1 ------- null}
h -t 0.0202337884873346 -s 0 -d 1 -p rtProtoDV -e 4 -c 0 -i 8 -a 0 -x {0.1 1.2 -1 ------- null}
+ -t 0.0202337884873346 -s 0 -d 3 -p rtProtoDV -e 4 -c 0 -i 9 -a 0 -x {0.1 3.1 -1 ------- null}
- -t 0.0202337884873346 -s 0 -d 3 -p rtProtoDV -e 4 -c 0 -i 9 -a 0 -x {0.1 3.1 -1 ------- null}
h -t 0.0202337884873346 -s 0 -d 3 -p rtProtoDV -e 4 -c 0 -i 9 -a 0 -x {0.1 3.1 -1 ------- null}
r -t 0.0202337884873346 -s 1 -d 2 -p rtProtoDV -e 4 -c 0 -i 5 -a 0 -x {1.2 2.2 -1 ------- null}
+ -t 0.0202337884873346 -s 2 -d 1 -p rtProtoDV -e 4 -c 0 -i 10 -a 0 -x {2.2 1.2 -1 ------- null}
- -t 0.0202337884873346 -s 2 -d 1 -p rtProtoDV -e 4 -c 0 -i 10 -a 0 -x {2.2 1.2 -1 ------- null}
h -t 0.0202337884873346 -s 2 -d 1 -p rtProtoDV -e 4 -c 0 -i 10 -a 0 -x {2.2 1.2 -1 ------- null}
+ -t 0.0202337884873346 -s 2 -d 3 -p rtProtoDV -e 4 -c 0 -i 11 -a 0 -x {2.2 3.1 -1 ------- null}
- -t 0.0202337884873346 -s 2 -d 3 -p rtProtoDV -e 4 -c 0 -i 11 -a 0 -x {2.2 3.1 -1 ------- null}
h -t 0.0202337884873346 -s 2 -d 3 -p rtProtoDV -e 4 -c 0 -i 11 -a 0 -x {2.2 3.1 -1 ------- null}
r -t 0.0202337884873346 -s 3 -d 0 -p rtProtoDV -e 4 -c 0 -i 6 -a 0 -x {3.1 0.1 -1 ------- null}
r -t 0.0202337884873346 -s 3 -d 2 -p rtProtoDV -e 4 -c 0 -i 7 -a 0 -x {3.1 2.2 -1 ------- null}
r -t 0.0302657884873346 -s 0 -d 1 -p rtProtoDV -e 4 -c 0 -i 8 -a 0 -x {0.1 1.2 -1 ------- null}
r -t 0.0302657884873346 -s 0 -d 3 -p rtProtoDV -e 4 -c 0 -i 9 -a 0 -x {0.1 3.1 -1 ------- null}
r -t 0.0302657884873346 -s 2 -d 1 -p rtProtoDV -e 4 -c 0 -i 10 -a 0 -x {2.2 1.2 -1 ------- null}
r -t 0.0302657884873346 -s 2 -d 3 -p rtProtoDV -e 4 -c 0 -i 11 -a 0 -x {2.2 3.1 -1 ------- null}
+ -t 0.04406133552271 -s 3 -d 0 -p rtProtoDV -e 4 -c 0 -i 12 -a 0 -x {3.1 0.1 -1 ------- null}
- -t 0.04406133552271 -s 3 -d 0 -p rtProtoDV -e 4 -c 0 -i 12 -a 0 -x {3.1 0.1 -1 ------- null}
h -t 0.04406133552271 -s 3 -d 0 -p rtProtoDV -e 4 -c 0 -i 12 -a 0 -x {3.1 0.1 -1 ------- null}
+ -t 0.04406133552271 -s 3 -d 2 -p rtProtoDV -e 4 -c 0 -i 13 -a 0 -x {3.1 2.2 -1 ------- null}
- -t 0.04406133552271 -s 3 -d 2 -p rtProtoDV -e 4 -c 0 -i 13 -a 0 -x {3.1 2.2 -1 ------- null}
h -t 0.04406133552271 -s 3 -d 2 -p rtProtoDV -e 4 -c 0 -i 13 -a 0 -x {3.1 2.2 -1 ------- null}
r -t 0.05409333552271 -s 3 -d 0 -p rtProtoDV -e 4 -c 0 -i 12 -a 0 -x {3.1 0.1 -1 ------- null}
r -t 0.05409333552271 -s 3 -d 2 -p rtProtoDV -e 4 -c 0 -i 13 -a 0 -x {3.1 2.2 -1 ------- null}
+ -t 0.277940357931862 -s 1 -d 0 -p rtProtoDV -e 4 -c 0 -i 14 -a 0 -x {1.2 0.1 -1 ------- null}
- -t 0.277940357931862 -s 1 -d 0 -p rtProtoDV -e 4 -c 0 -i 14 -a 0 -x {1.2 0.1 -1 ------- null}
h -t 0.277940357931862 -s 1 -d 0 -p rtProtoDV -e 4 -c 0 -i 14 -a 0 -x {1.2 0.1 -1 ------- null}
+ -t 0.277940357931862 -s 1 -d 2 -p rtProtoDV -e 4 -c 0 -i 15 -a 0 -x {1.2 2.2 -1 ------- null}
- -t 0.277940357931862 -s 1 -d 2 -p rtProtoDV -e 4 -c 0 -i 15 -a 0 -x {1.2 2.2 -1 ------- null}
h -t 0.277940357931862 -s 1 -d 2 -p rtProtoDV -e 4 -c 0 -i 15 -a 0 -x {1.2 2.2 -1 ------- null}
r -t 0.287972357931862 -s 1 -d 0 -p rtProtoDV -e 4 -c 0 -i 14 -a 0 -x {1.2 0.1 -1 ------- null}
r -t 0.287972357931862 -s 1 -d 2 -p rtProtoDV -e 4 -c 0 -i 15 -a 0 -x {1.2 2.2 -1 ------- null}
+ -t 0.5 -s 1 -d 2 -p tcp -e 40 -c 0 -i 16 -a 0 -x {1.0 2.0 0 ------- null}
- -t 0.5 -s 1 -d 2 -p tcp -e 40 -c 0 -i 16 -a 0 -x {1.0 2.0 0 ------- null}
h -t 0.5 -s 1 -d 2 -p tcp -e 40 -c 0 -i 16 -a 0 -x {1.0 2.0 -1 ------- null}
r -t 0.51032 -s 1 -d 2 -p tcp -e 40 -c 0 -i 16 -a 0 -x {1.0 2.0 0 ------- null}
+ -t 0.51032 -s 2 -d 1 -p ack -e 40 -c 0 -i 17 -a 0 -x {2.0 1.0 0 ------- null}
- -t 0.51032 -s 2 -d 1 -p ack -e 40 -c 0 -i 17 -a 0 -x {2.0 1.0 0 ------- null}
h -t 0.51032 -s 2 -d 1 -p ack -e 40 -c 0 -i 17 -a 0 -x {2.0 1.0 -1 ------- null}
r -t 0.52064 -s 2 -d 1 -p ack -e 40 -c 0 -i 17 -a 0 -x {2.0 1.0 0 ------- null}
+ -t 0.52064 -s 1 -d 2 -p tcp -e 1040 -c 0 -i 18 -a 0 -x {1.0 2.0 1 ------- null}
- -t 0.52064 -s 1 -d 2 -p tcp -e 1040 -c 0 -i 18 -a 0 -x {1.0 2.0 1 ------- null}
h -t 0.52064 -s 1 -d 2 -p tcp -e 1040 -c 0 -i 18 -a 0 -x {1.0 2.0 -1 ------- null}
+ -t 0.52064 -s 1 -d 2 -p tcp -e 1040 -c 0 -i 19 -a 0 -x {1.0 2.0 2 ------- null}
- -t 0.52896 -s 1 -d 2 -p tcp -e 1040 -c 0 -i 19 -a 0 -x {1.0 2.0 2 ------- null}
h -t 0.52896 -s 1 -d 2 -p tcp -e 1040 -c 0 -i 19 -a 0 -x {1.0 2.0 -1 ------- null}
r -t 0.53896 -s 1 -d 2 -p tcp -e 1040 -c 0 -i 18 -a 0 -x {1.0 2.0 1 ------- null}
r -t 0.54728 -s 1 -d 2 -p tcp -e 1040 -c 0 -i 19 -a 0 -x {1.0 2.0 2 ------- null}
+ -t 0.54728 -s 2 -d 1 -p ack -e 40 -c 0 -i 20 -a 0 -x {2.0 1.0 2 ------- null}
- -t 0.54728 -s 2 -d 1 -p ack -e 40 -c 0 -i 20 -a 0 -x {2.0 1.0 2 ------- null}
h -t 0.54728 -s 2 -d 1 -p ack -e 40 -c 0 -i 20 -a 0 -x {2.0 1.0 -1 ------- null}
r -t 0.5576 -s 2 -d 1 -p ack -e 40 -c 0 -i 20 -a 0 -x {2.0 1.0 2 ------- null}
+ -t 0.5576 -s 1 -d 2 -p tcp -e 1040 -c 0 -i 21 -a 0 -x {1.0 2.0 3 ------- null}
- -t 0.5576 -s 1 -d 2 -p tcp -e 1040 -c 0 -i 21 -a 0 -x {1.0 2.0 3 ------- null}
h -t 0.5576 -s 1 -d 2 -p tcp -e 1040 -c 0 -i 21 -a 0 -x {1.0 2.0 -1 ------- null}
+ -t 0.5576 -s 1 -d 2 -p tcp -e 1040 -c 0 -i 22 -a 0 -x {1.0 2.0 4 ------- null}
+ -t 0.5576 -s 1 -d 2 -p tcp -e 1040 -c 0 -i 23 -a 0 -x {1.0 2.0 5 ------- null}
- -t 0.56592 -s 1 -d 2 -p tcp -e 1040 -c 0 -i 22 -a 0 -x {1.0 2.0 4 ------- null}
h -t 0.56592 -s 1 -d 2 -p tcp -e 1040 -c 0 -i 22 -a 0 -x {1.0 2.0 -1 ------- null}
- -t 0.57424 -s 1 -d 2 -p tcp -e 1040 -c 0 -i 23 -a 0 -x {1.0 2.0 5 ------- null}
h -t 0.57424 -s 1 -d 2 -p tcp -e 1040 -c 0 -i 23 -a 0 -x {1.0 2.0 -1 ------- null}
r -t 0.57592 -s 1 -d 2 -p tcp -e 1040 -c 0 -i 21 -a 0 -x {1.0 2.0 3 ------- null}
r -t 0.58424 -s 1 -d 2 -p tcp -e 1040 -c 0 -i 22 -a 0 -x {1.0 2.0 4 ------- null}
+ -t 0.58424 -s 2 -d 1 -p ack -e 40 -c 0 -i 24 -a 0 -x {2.0 1.0 4 ------- null}
- -t 0.58424 -s 2 -d 1 -p ack -e 40 -c 0 -i 24 -a 0 -x {2.0 1.0 4 ------- null}
h -t 0.58424 -s 2 -d 1 -p ack -e 40 -c 0 -i 24 -a 0 -x {2.0 1.0 -1 ------- null}
r -t 0.59256 -s 1 -d 2 -p tcp -e 1040 -c 0 -i 23 -a 0 -x {1.0 2.0 5 ------- null}
r -t 0.59456 -s 2 -d 1 -p ack -e 40 -c 0 -i 24 -a 0 -x {2.0 1.0 4 ------- null}
+ -t 0.59456 -s 1 -d 2 -p tcp -e 1040 -c 0 -i 25 -a 0 -x {1.0 2.0 6 ------- null}
- -t 0.59456 -s 1 -d 2 -p tcp -e 1040 -c 0 -i 25 -a 0 -x {1.0 2.0 6 ------- null}
h -t 0.59456 -s 1 -d 2 -p tcp -e 1040 -c 0 -i 25 -a 0 -x {1.0 2.0 -1 ------- null}
+ -t 0.59456 -s 1 -d 2 -p tcp -e 1040 -c 0 -i 26 -a 0 -x {1.0 2.0 7 ------- null}
+ -t 0.59456 -s 1 -d 2 -p tcp -e 1040 -c 0 -i 27 -a 0 -x {1.0 2.0 8 ------- null}
- -t 0.60288 -s 1 -d 2 -p tcp -e 1040 -c 0 -i 26 -a 0 -x {1.0 2.0 7 ------- null}
h -t 0.60288 -s 1 -d 2 -p tcp -e 1040 -c 0 -i 26 -a 0 -x {1.0 2.0 -1 ------- null}
- -t 0.6112 -s 1 -d 2 -p tcp -e 1040 -c 0 -i 27 -a 0 -x {1.0 2.0 8 ------- null}
h -t 0.6112 -s 1 -d 2 -p tcp -e 1040 -c 0 -i 27 -a 0 -x {1.0 2.0 -1 ------- null}
r -t 0.61288 -s 1 -d 2 -p tcp -e 1040 -c 0 -i 25 -a 0 -x {1.0 2.0 6 ------- null}
+ -t 0.61288 -s 2 -d 1 -p ack -e 40 -c 0 -i 28 -a 0 -x {2.0 1.0 6 ------- null}
- -t 0.61288 -s 2 -d 1 -p ack -e 40 -c 0 -i 28 -a 0 -x {2.0 1.0 6 ------- null}
h -t 0.61288 -s 2 -d 1 -p ack -e 40 -c 0 -i 28 -a 0 -x {2.0 1.0 -1 ------- null}
r -t 0.6212 -s 1 -d 2 -p tcp -e 1040 -c 0 -i 26 -a 0 -x {1.0 2.0 7 ------- null}
r -t 0.6232 -s 2 -d 1 -p ack -e 40 -c 0 -i 28 -a 0 -x {2.0 1.0 6 ------- null}
+ -t 0.6232 -s 1 -d 2 -p tcp -e 1040 -c 0 -i 29 -a 0 -x {1.0 2.0 9 ------- null}
- -t 0.6232 -s 1 -d 2 -p tcp -e 1040 -c 0 -i 29 -a 0 -x {1.0 2.0 9 ------- null}
h -t 0.6232 -s 1 -d 2 -p tcp -e 1040 -c 0 -i 29 -a 0 -x {1.0 2.0 -1 ------- null}
+ -t 0.6232 -s 1 -d 2 -p tcp -e 1040 -c 0 -i 30 -a 0 -x {1.0 2.0 10 ------- null}
+ -t 0.6232 -s 1 -d 2 -p tcp -e 1040 -c 0 -i 31 -a 0 -x {1.0 2.0 11 ------- null}
r -t 0.62952 -s 1 -d 2 -p tcp -e 1040 -c 0 -i 27 -a 0 -x {1.0 2.0 8 ------- null}
+ -t 0.62952 -s 2 -d 1 -p ack -e 40 -c 0 -i 32 -a 0 -x {2.0 1.0 8 ------- null}
- -t 0.62952 -s 2 -d 1 -p ack -e 40 -c 0 -i 32 -a 0 -x {2.0 1.0 8 ------- null}
h -t 0.62952 -s 2 -d 1 -p ack -e 40 -c 0 -i 32 -a 0 -x {2.0 1.0 -1 ------- null}
- -t 0.63152 -s 1 -d 2 -p tcp -e 1040 -c 0 -i 30 -a 0 -x {1.0 2.0 10 ------- null}
h -t 0.63152 -s 1 -d 2 -p tcp -e 1040 -c 0 -i 30 -a 0 -x {1.0 2.0 -1 ------- null}
r -t 0.63984 -s 2 -d 1 -p ack -e 40 -c 0 -i 32 -a 0 -x {2.0 1.0 8 ------- null}
+ -t 0.63984 -s 1 -d 2 -p tcp -e 1040 -c 0 -i 33 -a 0 -x {1.0 2.0 12 ------- null}
+ -t 0.63984 -s 1 -d 2 -p tcp -e 1040 -c 0 -i 34 -a 0 -x {1.0 2.0 13 ------- null}
+ -t 0.63984 -s 1 -d 2 -p tcp -e 1040 -c 0 -i 35 -a 0 -x {1.0 2.0 14 ------- null}
- -t 0.63984 -s 1 -d 2 -p tcp -e 1040 -c 0 -i 31 -a 0 -x {1.0 2.0 11 ------- null}
h -t 0.63984 -s 1 -d 2 -p tcp -e 1040 -c 0 -i 31 -a 0 -x {1.0 2.0 -1 ------- null}
r -t 0.64152 -s 1 -d 2 -p tcp -e 1040 -c 0 -i 29 -a 0 -x {1.0 2.0 9 ------- null}
- -t 0.64816 -s 1 -d 2 -p tcp -e 1040 -c 0 -i 33 -a 0 -x {1.0 2.0 12 ------- null}
h -t 0.64816 -s 1 -d 2 -p tcp -e 1040 -c 0 -i 33 -a 0 -x {1.0 2.0 -1 ------- null}
r -t 0.64984 -s 1 -d 2 -p tcp -e 1040 -c 0 -i 30 -a 0 -x {1.0 2.0 10 ------- null}
+ -t 0.64984 -s 2 -d 1 -p ack -e 40 -c 0 -i 36 -a 0 -x {2.0 1.0 10 ------- null}
- -t 0.64984 -s 2 -d 1 -p ack -e 40 -c 0 -i 36 -a 0 -x {2.0 1.0 10 ------- null}
h -t 0.64984 -s 2 -d 1 -p ack -e 40 -c 0 -i 36 -a 0 -x {2.0 1.0 -1 ------- null}
- -t 0.65648 -s 1 -d 2 -p tcp -e 1040 -c 0 -i 34 -a 0 -x {1.0 2.0 13 ------- null}
h -t 0.65648 -s 1 -d 2 -p tcp -e 1040 -c 0 -i 34 -a 0 -x {1.0 2.0 -1 ------- null}
r -t 0.65816 -s 1 -d 2 -p tcp -e 1040 -c 0 -i 31 -a 0 -x {1.0 2.0 11 ------- null}
r -t 0.66016 -s 2 -d 1 -p ack -e 40 -c 0 -i 36 -a 0 -x {2.0 1.0 10 ------- null}
+ -t 0.66016 -s 1 -d 2 -p tcp -e 1040 -c 0 -i 37 -a 0 -x {1.0 2.0 15 ------- null}
+ -t 0.66016 -s 1 -d 2 -p tcp -e 1040 -c 0 -i 38 -a 0 -x {1.0 2.0 16 ------- null}
+ -t 0.66016 -s 1 -d 2 -p tcp -e 1040 -c 0 -i 39 -a 0 -x {1.0 2.0 17 ------- null}
- -t 0.6648 -s 1 -d 2 -p tcp -e 1040 -c 0 -i 35 -a 0 -x {1.0 2.0 14 ------- null}
h -t 0.6648 -s 1 -d 2 -p tcp -e 1040 -c 0 -i 35 -a 0 -x {1.0 2.0 -1 ------- null}
r -t 0.66648 -s 1 -d 2 -p tcp -e 1040 -c 0 -i 33 -a 0 -x {1.0 2.0 12 ------- null}
+ -t 0.66648 -s 2 -d 1 -p ack -e 40 -c 0 -i 40 -a 0 -x {2.0 1.0 12 ------- null}
- -t 0.66648 -s 2 -d 1 -p ack -e 40 -c 0 -i 40 -a 0 -x {2.0 1.0 12 ------- null}
h -t 0.66648 -s 2 -d 1 -p ack -e 40 -c 0 -i 40 -a 0 -x {2.0 1.0 -1 ------- null}
- -t 0.67312 -s 1 -d 2 -p tcp -e 1040 -c 0 -i 37 -a 0 -x {1.0 2.0 15 ------- null}
h -t 0.67312 -s 1 -d 2 -p tcp -e 1040 -c 0 -i 37 -a 0 -x {1.0 2.0 -1 ------- null}
r -t 0.6748 -s 1 -d 2 -p tcp -e 1040 -c 0 -i 34 -a 0 -x {1.0 2.0 13 ------- null}
r -t 0.6768 -s 2 -d 1 -p ack -e 40 -c 0 -i 40 -a 0 -x {2.0 1.0 12 ------- null}
+ -t 0.6768 -s 1 -d 2 -p tcp -e 1040 -c 0 -i 41 -a 0 -x {1.0 2.0 18 ------- null}
+ -t 0.6768 -s 1 -d 2 -p tcp -e 1040 -c 0 -i 42 -a 0 -x {1.0 2.0 19 ------- null}
+ -t 0.6768 -s 1 -d 2 -p tcp -e 1040 -c 0 -i 43 -a 0 -x {1.0 2.0 20 ------- null}
- -t 0.68144 -s 1 -d 2 -p tcp -e 1040 -c 0 -i 38 -a 0 -x {1.0 2.0 16 ------- null}
h -t 0.68144 -s 1 -d 2 -p tcp -e 1040 -c 0 -i 38 -a 0 -x {1.0 2.0 -1 ------- null}
r -t 0.68312 -s 1 -d 2 -p tcp -e 1040 -c 0 -i 35 -a 0 -x {1.0 2.0 14 ------- null}
+ -t 0.68312 -s 2 -d 1 -p ack -e 40 -c 0 -i 44 -a 0 -x {2.0 1.0 14 ------- null}
- -t 0.68312 -s 2 -d 1 -p ack -e 40 -c 0 -i 44 -a 0 -x {2.0 1.0 14 ------- null}
h -t 0.68312 -s 2 -d 1 -p ack -e 40 -c 0 -i 44 -a 0 -x {2.0 1.0 -1 ------- null}
- -t 0.68976 -s 1 -d 2 -p tcp -e 1040 -c 0 -i 39 -a 0 -x {1.0 2.0 17 ------- null}
h -t 0.68976 -s 1 -d 2 -p tcp -e 1040 -c 0 -i 39 -a 0 -x {1.0 2.0 -1 ------- null}
r -t 0.69144 -s 1 -d 2 -p tcp -e 1040 -c 0 -i 37 -a 0 -x {1.0 2.0 15 ------- null}
r -t 0.69344 -s 2 -d 1 -p ack -e 40 -c 0 -i 44 -a 0 -x {2.0 1.0 14 ------- null}
+ -t 0.69344 -s 1 -d 2 -p tcp -e 1040 -c 0 -i 45 -a 0 -x {1.0 2.0 21 ------- null}
+ -t 0.69344 -s 1 -d 2 -p tcp -e 1040 -c 0 -i 46 -a 0 -x {1.0 2.0 22 ------- null}
+ -t 0.69344 -s 1 -d 2 -p tcp -e 1040 -c 0 -i 47 -a 0 -x {1.0 2.0 23 ------- null}
- -t 0.69808 -s 1 -d 2 -p tcp -e 1040 -c 0 -i 41 -a 0 -x {1.0 2.0 18 ------- null}
h -t 0.69808 -s 1 -d 2 -p tcp -e 1040 -c 0 -i 41 -a 0 -x {1.0 2.0 -1 ------- null}
r -t 0.69976 -s 1 -d 2 -p tcp -e 1040 -c 0 -i 38 -a 0 -x {1.0 2.0 16 ------- null}
+ -t 0.69976 -s 2 -d 1 -p ack -e 40 -c 0 -i 48 -a 0 -x {2.0 1.0 16 ------- null}
- -t 0.69976 -s 2 -d 1 -p ack -e 40 -c 0 -i 48 -a 0 -x {2.0 1.0 16 ------- null}
h -t 0.69976 -s 2 -d 1 -p ack -e 40 -c 0 -i 48 -a 0 -x {2.0 1.0 -1 ------- null}
- -t 0.7064 -s 1 -d 2 -p tcp -e 1040 -c 0 -i 42 -a 0 -x {1.0 2.0 19 ------- null}
h -t 0.7064 -s 1 -d 2 -p tcp -e 1040 -c 0 -i 42 -a 0 -x {1.0 2.0 -1 ------- null}
r -t 0.70808 -s 1 -d 2 -p tcp -e 1040 -c 0 -i 39 -a 0 -x {1.0 2.0 17 ------- null}
r -t 0.71008 -s 2 -d 1 -p ack -e 40 -c 0 -i 48 -a 0 -x {2.0 1.0 16 ------- null}
+ -t 0.71008 -s 1 -d 2 -p tcp -e 1040 -c 0 -i 49 -a 0 -x {1.0 2.0 24 ------- null}
+ -t 0.71008 -s 1 -d 2 -p tcp -e 1040 -c 0 -i 50 -a 0 -x {1.0 2.0 25 ------- null}
+ -t 0.71008 -s 1 -d 2 -p tcp -e 1040 -c 0 -i 51 -a 0 -x {1.0 2.0 26 ------- null}
- -t 0.71472 -s 1 -d 2 -p tcp -e 1040 -c 0 -i 43 -a 0 -x {1.0 2.0 20 ------- null}
h -t 0.71472 -s 1 -d 2 -p tcp -e 1040 -c 0 -i 43 -a 0 -x {1.0 2.0 -1 ------- null}
r -t 0.7164 -s 1 -d 2 -p tcp -e 1040 -c 0 -i 41 -a 0 -x {1.0 2.0 18 ------- null}
+ -t 0.7164 -s 2 -d 1 -p ack -e 40 -c 0 -i 52 -a 0 -x {2.0 1.0 18 ------- null}
- -t 0.7164 -s 2 -d 1 -p ack -e 40 -c 0 -i 52 -a 0 -x {2.0 1.0 18 ------- null}
h -t 0.7164 -s 2 -d 1 -p ack -e 40 -c 0 -i 52 -a 0 -x {2.0 1.0 -1 ------- null}
- -t 0.72304 -s 1 -d 2 -p tcp -e 1040 -c 0 -i 45 -a 0 -x {1.0 2.0 21 ------- null}
h -t 0.72304 -s 1 -d 2 -p tcp -e 1040 -c 0 -i 45 -a 0 -x {1.0 2.0 -1 ------- null}
r -t 0.72472 -s 1 -d 2 -p tcp -e 1040 -c 0 -i 42 -a 0 -x {1.0 2.0 19 ------- null}
r -t 0.72672 -s 2 -d 1 -p ack -e 40 -c 0 -i 52 -a 0 -x {2.0 1.0 18 ------- null}
+ -t 0.72672 -s 1 -d 2 -p tcp -e 1040 -c 0 -i 53 -a 0 -x {1.0 2.0 27 ------- null}
+ -t 0.72672 -s 1 -d 2 -p tcp -e 1040 -c 0 -i 54 -a 0 -x {1.0 2.0 28 ------- null}
+ -t 0.72672 -s 1 -d 2 -p tcp -e 1040 -c 0 -i 55 -a 0 -x {1.0 2.0 29 ------- null}
- -t 0.73136 -s 1 -d 2 -p tcp -e 1040 -c 0 -i 46 -a 0 -x {1.0 2.0 22 ------- null}
h -t 0.73136 -s 1 -d 2 -p tcp -e 1040 -c 0 -i 46 -a 0 -x {1.0 2.0 -1 ------- null}
r -t 0.73304 -s 1 -d 2 -p tcp -e 1040 -c 0 -i 43 -a 0 -x {1.0 2.0 20 ------- null}
+ -t 0.73304 -s 2 -d 1 -p ack -e 40 -c 0 -i 56 -a 0 -x {2.0 1.0 20 ------- null}
- -t 0.73304 -s 2 -d 1 -p ack -e 40 -c 0 -i 56 -a 0 -x {2.0 1.0 20 ------- null}
h -t 0.73304 -s 2 -d 1 -p ack -e 40 -c 0 -i 56 -a 0 -x {2.0 1.0 -1 ------- null}
- -t 0.73968 -s 1 -d 2 -p tcp -e 1040 -c 0 -i 47 -a 0 -x {1.0 2.0 23 ------- null}
h -t 0.73968 -s 1 -d 2 -p tcp -e 1040 -c 0 -i 47 -a 0 -x {1.0 2.0 -1 ------- null}
r -t 0.74136 -s 1 -d 2 -p tcp -e 1040 -c 0 -i 45 -a 0 -x {1.0 2.0 21 ------- null}
r -t 0.74336 -s 2 -d 1 -p ack -e 40 -c 0 -i 56 -a 0 -x {2.0 1.0 20 ------- null}
+ -t 0.74336 -s 1 -d 2 -p tcp -e 1040 -c 0 -i 57 -a 0 -x {1.0 2.0 30 ------- null}
+ -t 0.74336 -s 1 -d 2 -p tcp -e 1040 -c 0 -i 58 -a 0 -x {1.0 2.0 31 ------- null}
+ -t 0.74336 -s 1 -d 2 -p tcp -e 1040 -c 0 -i 59 -a 0 -x {1.0 2.0 32 ------- null}
- -t 0.748 -s 1 -d 2 -p tcp -e 1040 -c 0 -i 49 -a 0 -x {1.0 2.0 24 ------- null}
h -t 0.748 -s 1 -d 2 -p tcp -e 1040 -c 0 -i 49 -a 0 -x {1.0 2.0 -1 ------- null}
r -t 0.74968 -s 1 -d 2 -p tcp -e 1040 -c 0 -i 46 -a 0 -x {1.0 2.0 22 ------- null}
+ -t 0.74968 -s 2 -d 1 -p ack -e 40 -c 0 -i 60 -a 0 -x {2.0 1.0 22 ------- null}
- -t 0.74968 -s 2 -d 1 -p ack -e 40 -c 0 -i 60 -a 0 -x {2.0 1.0 22 ------- null}
h -t 0.74968 -s 2 -d 1 -p ack -e 40 -c 0 -i 60 -a 0 -x {2.0 1.0 -1 ------- null}
- -t 0.75632 -s 1 -d 2 -p tcp -e 1040 -c 0 -i 50 -a 0 -x {1.0 2.0 25 ------- null}
h -t 0.75632 -s 1 -d 2 -p tcp -e 1040 -c 0 -i 50 -a 0 -x {1.0 2.0 -1 ------- null}
r -t 0.758 -s 1 -d 2 -p tcp -e 1040 -c 0 -i 47 -a 0 -x {1.0 2.0 23 ------- null}
r -t 0.76 -s 2 -d 1 -p ack -e 40 -c 0 -i 60 -a 0 -x {2.0 1.0 22 ------- null}
+ -t 0.76 -s 1 -d 2 -p tcp -e 1040 -c 0 -i 61 -a 0 -x {1.0 2.0 33 ------- null}
+ -t 0.76 -s 1 -d 2 -p tcp -e 1040 -c 0 -i 62 -a 0 -x {1.0 2.0 34 ------- null}
+ -t 0.76 -s 1 -d 2 -p tcp -e 1040 -c 0 -i 63 -a 0 -x {1.0 2.0 35 ------- null}
- -t 0.76464 -s 1 -d 2 -p tcp -e 1040 -c 0 -i 51 -a 0 -x {1.0 2.0 26 ------- null}
h -t 0.76464 -s 1 -d 2 -p tcp -e 1040 -c 0 -i 51 -a 0 -x {1.0 2.0 -1 ------- null}
r -t 0.76632 -s 1 -d 2 -p tcp -e 1040 -c 0 -i 49 -a 0 -x {1.0 2.0 24 ------- null}
+ -t 0.76632 -s 2 -d 1 -p ack -e 40 -c 0 -i 64 -a 0 -x {2.0 1.0 24 ------- null}
- -t 0.76632 -s 2 -d 1 -p ack -e 40 -c 0 -i 64 -a 0 -x {2.0 1.0 24 ------- null}
h -t 0.76632 -s 2 -d 1 -p ack -e 40 -c 0 -i 64 -a 0 -x {2.0 1.0 -1 ------- null}
- -t 0.77296 -s 1 -d 2 -p tcp -e 1040 -c 0 -i 53 -a 0 -x {1.0 2.0 27 ------- null}
h -t 0.77296 -s 1 -d 2 -p tcp -e 1040 -c 0 -i 53 -a 0 -x {1.0 2.0 -1 ------- null}
r -t 0.77464 -s 1 -d 2 -p tcp -e 1040 -c 0 -i 50 -a 0 -x {1.0 2.0 25 ------- null}
r -t 0.77664 -s 2 -d 1 -p ack -e 40 -c 0 -i 64 -a 0 -x {2.0 1.0 24 ------- null}
+ -t 0.77664 -s 1 -d 2 -p tcp -e 1040 -c 0 -i 65 -a 0 -x {1.0 2.0 36 ------- null}
+ -t 0.77664 -s 1 -d 2 -p tcp -e 1040 -c 0 -i 66 -a 0 -x {1.0 2.0 37 ------- null}
+ -t 0.77664 -s 1 -d 2 -p tcp -e 1040 -c 0 -i 67 -a 0 -x {1.0 2.0 38 ------- null}
- -t 0.78128 -s 1 -d 2 -p tcp -e 1040 -c 0 -i 54 -a 0 -x {1.0 2.0 28 ------- null}
h -t 0.78128 -s 1 -d 2 -p tcp -e 1040 -c 0 -i 54 -a 0 -x {1.0 2.0 -1 ------- null}
r -t 0.78296 -s 1 -d 2 -p tcp -e 1040 -c 0 -i 51 -a 0 -x {1.0 2.0 26 ------- null}
+ -t 0.78296 -s 2 -d 1 -p ack -e 40 -c 0 -i 68 -a 0 -x {2.0 1.0 26 ------- null}
- -t 0.78296 -s 2 -d 1 -p ack -e 40 -c 0 -i 68 -a 0 -x {2.0 1.0 26 ------- null}
h -t 0.78296 -s 2 -d 1 -p ack -e 40 -c 0 -i 68 -a 0 -x {2.0 1.0 -1 ------- null}
- -t 0.7896 -s 1 -d 2 -p tcp -e 1040 -c 0 -i 55 -a 0 -x {1.0 2.0 29 ------- null}
h -t 0.7896 -s 1 -d 2 -p tcp -e 1040 -c 0 -i 55 -a 0 -x {1.0 2.0 -1 ------- null}
r -t 0.79128 -s 1 -d 2 -p tcp -e 1040 -c 0 -i 53 -a 0 -x {1.0 2.0 27 ------- null}
r -t 0.79328 -s 2 -d 1 -p ack -e 40 -c 0 -i 68 -a 0 -x {2.0 1.0 26 ------- null}
+ -t 0.79328 -s 1 -d 2 -p tcp -e 1040 -c 0 -i 69 -a 0 -x {1.0 2.0 39 ------- null}
+ -t 0.79328 -s 1 -d 2 -p tcp -e 1040 -c 0 -i 70 -a 0 -x {1.0 2.0 40 ------- null}
+ -t 0.79328 -s 1 -d 2 -p tcp -e 1040 -c 0 -i 71 -a 0 -x {1.0 2.0 41 ------- null}
- -t 0.79792 -s 1 -d 2 -p tcp -e 1040 -c 0 -i 57 -a 0 -x {1.0 2.0 30 ------- null}
h -t 0.79792 -s 1 -d 2 -p tcp -e 1040 -c 0 -i 57 -a 0 -x {1.0 2.0 -1 ------- null}
r -t 0.7996 -s 1 -d 2 -p tcp -e 1040 -c 0 -i 54 -a 0 -x {1.0 2.0 28 ------- null}
+ -t 0.7996 -s 2 -d 1 -p ack -e 40 -c 0 -i 72 -a 0 -x {2.0 1.0 28 ------- null}
- -t 0.7996 -s 2 -d 1 -p ack -e 40 -c 0 -i 72 -a 0 -x {2.0 1.0 28 ------- null}
h -t 0.7996 -s 2 -d 1 -p ack -e 40 -c 0 -i 72 -a 0 -x {2.0 1.0 -1 ------- null}
- -t 0.80624 -s 1 -d 2 -p tcp -e 1040 -c 0 -i 58 -a 0 -x {1.0 2.0 31 ------- null}
h -t 0.80624 -s 1 -d 2 -p tcp -e 1040 -c 0 -i 58 -a 0 -x {1.0 2.0 -1 ------- null}
r -t 0.80792 -s 1 -d 2 -p tcp -e 1040 -c 0 -i 55 -a 0 -x {1.0 2.0 29 ------- null}
r -t 0.80992 -s 2 -d 1 -p ack -e 40 -c 0 -i 72 -a 0 -x {2.0 1.0 28 ------- null}
+ -t 0.80992 -s 1 -d 2 -p tcp -e 1040 -c 0 -i 73 -a 0 -x {1.0 2.0 42 ------- null}
+ -t 0.80992 -s 1 -d 2 -p tcp -e 1040 -c 0 -i 74 -a 0 -x {1.0 2.0 43 ------- null}
+ -t 0.80992 -s 1 -d 2 -p tcp -e 1040 -c 0 -i 75 -a 0 -x {1.0 2.0 44 ------- null}
- -t 0.81456 -s 1 -d 2 -p tcp -e 1040 -c 0 -i 59 -a 0 -x {1.0 2.0 32 ------- null}
h -t 0.81456 -s 1 -d 2 -p tcp -e 1040 -c 0 -i 59 -a 0 -x {1.0 2.0 -1 ------- null}
r -t 0.81624 -s 1 -d 2 -p tcp -e 1040 -c 0 -i 57 -a 0 -x {1.0 2.0 30 ------- null}
+ -t 0.81624 -s 2 -d 1 -p ack -e 40 -c 0 -i 76 -a 0 -x {2.0 1.0 30 ------- null}
- -t 0.81624 -s 2 -d 1 -p ack -e 40 -c 0 -i 76 -a 0 -x {2.0 1.0 30 ------- null}
h -t 0.81624 -s 2 -d 1 -p ack -e 40 -c 0 -i 76 -a 0 -x {2.0 1.0 -1 ------- null}
- -t 0.82288 -s 1 -d 2 -p tcp -e 1040 -c 0 -i 61 -a 0 -x {1.0 2.0 33 ------- null}
h -t 0.82288 -s 1 -d 2 -p tcp -e 1040 -c 0 -i 61 -a 0 -x {1.0 2.0 -1 ------- null}
r -t 0.82456 -s 1 -d 2 -p tcp -e 1040 -c 0 -i 58 -a 0 -x {1.0 2.0 31 ------- null}
r -t 0.82656 -s 2 -d 1 -p ack -e 40 -c 0 -i 76 -a 0 -x {2.0 1.0 30 ------- null}
+ -t 0.82656 -s 1 -d 2 -p tcp -e 1040 -c 0 -i 77 -a 0 -x {1.0 2.0 45 ------- null}
+ -t 0.82656 -s 1 -d 2 -p tcp -e 1040 -c 0 -i 78 -a 0 -x {1.0 2.0 46 ------- null}
+ -t 0.82656 -s 1 -d 2 -p tcp -e 1040 -c 0 -i 79 -a 0 -x {1.0 2.0 47 ------- null}
- -t 0.8312 -s 1 -d 2 -p tcp -e 1040 -c 0 -i 62 -a 0 -x {1.0 2.0 34 ------- null}
h -t 0.8312 -s 1 -d 2 -p tcp -e 1040 -c 0 -i 62 -a 0 -x {1.0 2.0 -1 ------- null}
r -t 0.83288 -s 1 -d 2 -p tcp -e 1040 -c 0 -i 59 -a 0 -x {1.0 2.0 32 ------- null}
+ -t 0.83288 -s 2 -d 1 -p ack -e 40 -c 0 -i 80 -a 0 -x {2.0 1.0 32 ------- null}
- -t 0.83288 -s 2 -d 1 -p ack -e 40 -c 0 -i 80 -a 0 -x {2.0 1.0 32 ------- null}
h -t 0.83288 -s 2 -d 1 -p ack -e 40 -c 0 -i 80 -a 0 -x {2.0 1.0 -1 ------- null}
- -t 0.83952 -s 1 -d 2 -p tcp -e 1040 -c 0 -i 63 -a 0 -x {1.0 2.0 35 ------- null}
h -t 0.83952 -s 1 -d 2 -p tcp -e 1040 -c 0 -i 63 -a 0 -x {1.0 2.0 -1 ------- null}
r -t 0.8412 -s 1 -d 2 -p tcp -e 1040 -c 0 -i 61 -a 0 -x {1.0 2.0 33 ------- null}
r -t 0.8432 -s 2 -d 1 -p ack -e 40 -c 0 -i 80 -a 0 -x {2.0 1.0 32 ------- null}
+ -t 0.8432 -s 1 -d 2 -p tcp -e 1040 -c 0 -i 81 -a 0 -x {1.0 2.0 48 ------- null}
+ -t 0.8432 -s 1 -d 2 -p tcp -e 1040 -c 0 -i 82 -a 0 -x {1.0 2.0 49 ------- null}
+ -t 0.8432 -s 1 -d 2 -p tcp -e 1040 -c 0 -i 83 -a 0 -x {1.0 2.0 50 ------- null}
- -t 0.84784 -s 1 -d 2 -p tcp -e 1040 -c 0 -i 65 -a 0 -x {1.0 2.0 36 ------- null}
h -t 0.84784 -s 1 -d 2 -p tcp -e 1040 -c 0 -i 65 -a 0 -x {1.0 2.0 -1 ------- null}
r -t 0.84952 -s 1 -d 2 -p tcp -e 1040 -c 0 -i 62 -a 0 -x {1.0 2.0 34 ------- null}
+ -t 0.84952 -s 2 -d 1 -p ack -e 40 -c 0 -i 84 -a 0 -x {2.0 1.0 34 ------- null}
- -t 0.84952 -s 2 -d 1 -p ack -e 40 -c 0 -i 84 -a 0 -x {2.0 1.0 34 ------- null}
h -t 0.84952 -s 2 -d 1 -p ack -e 40 -c 0 -i 84 -a 0 -x {2.0 1.0 -1 ------- null}
- -t 0.85616 -s 1 -d 2 -p tcp -e 1040 -c 0 -i 66 -a 0 -x {1.0 2.0 37 ------- null}
h -t 0.85616 -s 1 -d 2 -p tcp -e 1040 -c 0 -i 66 -a 0 -x {1.0 2.0 -1 ------- null}
r -t 0.85784 -s 1 -d 2 -p tcp -e 1040 -c 0 -i 63 -a 0 -x {1.0 2.0 35 ------- null}
r -t 0.85984 -s 2 -d 1 -p ack -e 40 -c 0 -i 84 -a 0 -x {2.0 1.0 34 ------- null}
+ -t 0.85984 -s 1 -d 2 -p tcp -e 1040 -c 0 -i 85 -a 0 -x {1.0 2.0 51 ------- null}
+ -t 0.85984 -s 1 -d 2 -p tcp -e 1040 -c 0 -i 86 -a 0 -x {1.0 2.0 52 ------- null}
+ -t 0.85984 -s 1 -d 2 -p tcp -e 1040 -c 0 -i 87 -a 0 -x {1.0 2.0 53 ------- null}
- -t 0.86448 -s 1 -d 2 -p tcp -e 1040 -c 0 -i 67 -a 0 -x {1.0 2.0 38 ------- null}
h -t 0.86448 -s 1 -d 2 -p tcp -e 1040 -c 0 -i 67 -a 0 -x {1.0 2.0 -1 ------- null}
r -t 0.86616 -s 1 -d 2 -p tcp -e 1040 -c 0 -i 65 -a 0 -x {1.0 2.0 36 ------- null}
+ -t 0.86616 -s 2 -d 1 -p ack -e 40 -c 0 -i 88 -a 0 -x {2.0 1.0 36 ------- null}
- -t 0.86616 -s 2 -d 1 -p ack -e 40 -c 0 -i 88 -a 0 -x {2.0 1.0 36 ------- null}
h -t 0.86616 -s 2 -d 1 -p ack -e 40 -c 0 -i 88 -a 0 -x {2.0 1.0 -1 ------- null}
- -t 0.8728 -s 1 -d 2 -p tcp -e 1040 -c 0 -i 69 -a 0 -x {1.0 2.0 39 ------- null}
h -t 0.8728 -s 1 -d 2 -p tcp -e 1040 -c 0 -i 69 -a 0 -x {1.0 2.0 -1 ------- null}
r -t 0.87448 -s 1 -d 2 -p tcp -e 1040 -c 0 -i 66 -a 0 -x {1.0 2.0 37 ------- null}
r -t 0.87648 -s 2 -d 1 -p ack -e 40 -c 0 -i 88 -a 0 -x {2.0 1.0 36 ------- null}
+ -t 0.87648 -s 1 -d 2 -p tcp -e 1040 -c 0 -i 89 -a 0 -x {1.0 2.0 54 ------- null}
+ -t 0.87648 -s 1 -d 2 -p tcp -e 1040 -c 0 -i 90 -a 0 -x {1.0 2.0 55 ------- null}
+ -t 0.87648 -s 1 -d 2 -p tcp -e 1040 -c 0 -i 91 -a 0 -x {1.0 2.0 56 ------- null}
- -t 0.88112 -s 1 -d 2 -p tcp -e 1040 -c 0 -i 70 -a 0 -x {1.0 2.0 40 ------- null}
h -t 0.88112 -s 1 -d 2 -p tcp -e 1040 -c 0 -i 70 -a 0 -x {1.0 2.0 -1 ------- null}
r -t 0.8828 -s 1 -d 2 -p tcp -e 1040 -c 0 -i 67 -a 0 -x {1.0 2.0 38 ------- null}
+ -t 0.8828 -s 2 -d 1 -p ack -e 40 -c 0 -i 92 -a 0 -x {2.0 1.0 38 ------- null}
- -t 0.8828 -s 2 -d 1 -p ack -e 40 -c 0 -i 92 -a 0 -x {2.0 1.0 38 ------- null}
h -t 0.8828 -s 2 -d 1 -p ack -e 40 -c 0 -i 92 -a 0 -x {2.0 1.0 -1 ------- null}
- -t 0.88944 -s 1 -d 2 -p tcp -e 1040 -c 0 -i 71 -a 0 -x {1.0 2.0 41 ------- null}
h -t 0.88944 -s 1 -d 2 -p tcp -e 1040 -c 0 -i 71 -a 0 -x {1.0 2.0 -1 ------- null}
r -t 0.89112 -s 1 -d 2 -p tcp -e 1040 -c 0 -i 69 -a 0 -x {1.0 2.0 39 ------- null}
r -t 0.89312 -s 2 -d 1 -p ack -e 40 -c 0 -i 92 -a 0 -x {2.0 1.0 38 ------- null}
+ -t 0.89312 -s 1 -d 2 -p tcp -e 1040 -c 0 -i 93 -a 0 -x {1.0 2.0 57 ------- null}
+ -t 0.89312 -s 1 -d 2 -p tcp -e 1040 -c 0 -i 94 -a 0 -x {1.0 2.0 58 ------- null}
- -t 0.89776 -s 1 -d 2 -p tcp -e 1040 -c 0 -i 73 -a 0 -x {1.0 2.0 42 ------- null}
h -t 0.89776 -s 1 -d 2 -p tcp -e 1040 -c 0 -i 73 -a 0 -x {1.0 2.0 -1 ------- null}
r -t 0.89944 -s 1 -d 2 -p tcp -e 1040 -c 0 -i 70 -a 0 -x {1.0 2.0 40 ------- null}
+ -t 0.89944 -s 2 -d 1 -p ack -e 40 -c 0 -i 95 -a 0 -x {2.0 1.0 40 ------- null}
- -t 0.89944 -s 2 -d 1 -p ack -e 40 -c 0 -i 95 -a 0 -x {2.0 1.0 40 ------- null}
h -t 0.89944 -s 2 -d 1 -p ack -e 40 -c 0 -i 95 -a 0 -x {2.0 1.0 -1 ------- null}
- -t 0.90608 -s 1 -d 2 -p tcp -e 1040 -c 0 -i 74 -a 0 -x {1.0 2.0 43 ------- null}
h -t 0.90608 -s 1 -d 2 -p tcp -e 1040 -c 0 -i 74 -a 0 -x {1.0 2.0 -1 ------- null}
r -t 0.90776 -s 1 -d 2 -p tcp -e 1040 -c 0 -i 71 -a 0 -x {1.0 2.0 41 ------- null}
r -t 0.90976 -s 2 -d 1 -p ack -e 40 -c 0 -i 95 -a 0 -x {2.0 1.0 40 ------- null}
+ -t 0.90976 -s 1 -d 2 -p tcp -e 1040 -c 0 -i 96 -a 0 -x {1.0 2.0 59 ------- null}
+ -t 0.90976 -s 1 -d 2 -p tcp -e 1040 -c 0 -i 97 -a 0 -x {1.0 2.0 60 ------- null}
- -t 0.9144 -s 1 -d 2 -p tcp -e 1040 -c 0 -i 75 -a 0 -x {1.0 2.0 44 ------- null}
h -t 0.9144 -s 1 -d 2 -p tcp -e 1040 -c 0 -i 75 -a 0 -x {1.0 2.0 -1 ------- null}
r -t 0.91608 -s 1 -d 2 -p tcp -e 1040 -c 0 -i 73 -a 0 -x {1.0 2.0 42 ------- null}
+ -t 0.91608 -s 2 -d 1 -p ack -e 40 -c 0 -i 98 -a 0 -x {2.0 1.0 42 ------- null}
- -t 0.91608 -s 2 -d 1 -p ack -e 40 -c 0 -i 98 -a 0 -x {2.0 1.0 42 ------- null}
h -t 0.91608 -s 2 -d 1 -p ack -e 40 -c 0 -i 98 -a 0 -x {2.0 1.0 -1 ------- null}
- -t 0.92272 -s 1 -d 2 -p tcp -e 1040 -c 0 -i 77 -a 0 -x {1.0 2.0 45 ------- null}